%VERSION  VERSION_STAMP = V0001.000  DATE = 10/02/26  14:51:39                  
%FLAG TITLE                                                                     
%FORMAT(20a4)                                                                   
default_name                                                                    
%FLAG POINTERS                                                                  
%FORMAT(10I8)                                                                   
   41777      14   40915     952    1988    1408    4415    3285       0       0
   64018   13398     952    1408    3285      25      47      36      17       0
       0       0       0       0       0       0       0       1      55       0
       0
%FLAG ATOM_NAME                                                                 
%FORMAT(20a4)                                                                   
C   C1  C2  C3  C4  C5  C6  C7  C8  C9  C10 C11 C12 C13 C14 C15 H   H1  H2  H3  
H4  H5  H6  H7  H8  H9  CC  HC1 HC2 O   C   C1  H   C2  C3  C4  C6  C7  C8  H1  
N   C10 C11 C12 C13 O1  C14 C15 O2  C16 C17 O3  O4  C18 O5  C19 O6  C20 O7  H2  
H3  H6  H7  H8  H9  H12 H13 H14 H15 H16 H17 H18 H19 H20 H21 H22 H23 H24 H25 H26 
H27 H28 H29 H30 O   C   C1  H   C2  C3  C4  C6  C7  C8  H1  N   C10 C11 C12 C13 
O1  C14 C15 O2  C16 C17 O3  O4  C18 O5  C19 O6  C20 O7  H2  H3  H6  H7  H8  H9  
H12 H13 H14 H15 H16 H17 H18 H19 H20 H21 H22 H23 H24 H25 H26 H27 H28 H29 H30 O   
C   C1  H   C2  C3  C4  C6  C7  C8  H1  N   C10 C11 C12 C13 O1  C14 C15 O2  C16 
C17 O3  O4  C18 O5  C19 O6  C20 O7  H2  H3  H6  H7  H8  H9  H12 H13 H14 H15 H16 
H17 H18 H19 H20 H21 H22 H23 H24 H25 H26 H27 H28 H29 H30 O   C   C1  H   C2  C3  
C4  C6  C7  C8  H1  N   C10 C11 C12 C13 O1  C14 C15 O2  C16 C17 O3  O4  C18 O5  
C19 O6  C20 O7  H2  H3  H6  H7  H8  H9  H12 H13 H14 H15 H16 H17 H18 H19 H20 H21 
H22 H23 H24 H25 H26 H27 H28 H29 H30 O   C   C1  H   C2  C3  C4  C6  C7  C8  H1  
N   C10 C11 C12 C13 O1  C14 C15 O2  C16 C17 O3  O4  C18 O5  C19 O6  C20 O7  H2  
H3  H6  H7  H8  H9  H12 H13 H14 H15 H16 H17 H18 H19 H20 H21 H22 H23 H24 H25 H26 
H27 H28 H29 H30 O   C   C1  H   C2  C3  C4  C6  C7  C8  H1  N   C10 C11 C12 C13 
O1  C14 C15 O2  C16 C17 O3  O4  C18 O5  C19 O6  C20 O7  H2  H3  H6  H7  H8  H9  
H12 H13 H14 H15 H16 H17 H18 H19 H20 H21 H22 H23 H24 H25 H26 H27 H28 H29 H30 O   
C   C1  H   C2  C3  C4  C6  C7  C8  H1  N   C10 C11 C12 C13 O1  C14 C15 O2  C16 
C17 O3  O4  C18 O5  C19 O6  C20 O7  H2  H3  H6  H7  H8  H9  H12 H13 H14 H15 H16 
H17 H18 H19 H20 H21 H22 H23 H24 H25 H26 H27 H28 H29 H30 O   C   C1  H   C2  C3  
C4  C6  C7  C8  H1  N   C10 C11 C12 C13 O1  C14 C15 O2  C16 C17 O3  O4  C18 O5  
C19 O6  C20 O7  H2  H3  H6  H7  H8  H9  H12 H13 H14 H15 H16 H17 H18 H19 H20 H21 
H22 H23 H24 H25 H26 H27 H28 H29 H30 O   C   C1  H   C2  C3  C4  C6  C7  C8  H1  
N   C10 C11 C12 C13 O1  C14 C15 O2  C16 C17 O3  O4  C18 O5  C19 O6  C20 O7  H2  
H3  H6  H7  H8  H9  H12 H13 H14 H15 H16 H17 H18 H19 H20 H21 H22 H23 H24 H25 H26 
H27 H28 H29 H30 O   C   C1  H   C2  C3  C4  C6  C7  C8  H1  N   C10 C11 C12 C13 
O1  C14 C15 O2  C16 C17 O3  O4  C18 O5  C19 O6  C20 O7  H2  H3  H6  H7  H8  H9  
H12 H13 H14 H15 H16 H17 H18 H19 H20 H21 H22 H23 H24 H25 H26 H27 H28 H29 H30 CC  
HC1 HC2 CC  HC1 HC2 O   C   C1  H   C2  C3  C4  C6  C7  C8  H1  N   C10 C11 C12 
C13 O1  C14 C15 O2  C16 C17 O3  O4  C18 O5  C19 O6  C20 O7  H2  H3  H6  H7  H8  
H9  H12 H13 H14 H15 H16 H17 H18 H19 H20 H21 H22 H23 H24 H25 H26 H27 H28 H29 H30 
O   C   C1  H   C2  C3  C4  C6  C7  C8  H1  N   C10 C11 C12 C13 O1  C14 C15 O2  
C16 C17 O3  O4  C18 O5  C19 O6  C20 O7  H2  H3  H6  H7  H8  H9  H12 H13 H14 H15 
H16 H17 H18 H19 H20 H21 H22 H23 H24 H25 H26 H27 H28 H29 H30 O   C   C1  H   C2  
C3  C4  C6  C7  C8  H1  N   C10 C11 C12 C13 O1  C14 C15 O2  C16 C17 O3  O4  C18 
O5  C19 O6  C20 O7  H2  H3  H6  H7  H8  H9  H12 H13 H14 H15 H16 H17 H18 H19 H20 
H21 H22 H23 H24 H25 H26 H27 H28 H29 H30 O   C   C1  H   C2  C3  C4  C6  C7  C8  
H1  N   C10 C11 C12 C13 O1  C14 C15 O2  C16 C17 O3  O4  C18 O5  C19 O6  C20 O7  
H2  H3  H6  H7  H8  H9  H12 H13 H14 H15 H16 H17 H18 H19 H20 H21 H22 H23 H24 H25 
H26 H27 H28 H29 H30 O   C   C1  H   C2  C3  C4  C6  C7  C8  H1  N   C10 C11 C12 
C13 O1  C14 C15 O2  C16 C17 O3  O4  C18 O5  C19 O6  C20 O7  H2  H3  H6  H7  H8  
H9  H12 H13 H14 H15 H16 H17 H18 H19 H20 H21 H22 H23 H24 H25 H26 H27 H28 H29 H30 
O   C   C1  H   C2  C3  C4  C6  C7  C8  H1  N   C10 C11 C12 C13 O1  C14 C15 O2  
C16 C17 O3  O4  C18 O5  C19 O6  C20 O7  H2  H3  H6  H7  H8  H9  H12 H13 H14 H15 
H16 H17 H18 H19 H20 H21 H22 H23 H24 H25 H26 H27 H28 H29 H30 O   C   C1  H   C2  
C3  C4  C6  C7  C8  H1  N   C10 C11 C12 C13 O1  C14 C15 O2  C16 C17 O3  O4  C18 
O5  C19 O6  C20 O7  H2  H3  H6  H7  H8  H9  H12 H13 H14 H15 H16 H17 H18 H19 H20 
H21 H22 H23 H24 H25 H26 H27 H28 H29 H30 O   C   C1  H   C2  C3  C4  C6  C7  C8  
H1  N   C10 C11 C12 C13 O1  C14 C15 O2  C16 C17 O3  O4  C18 O5  C19 O6  C20 O7  
H2  H3  H6  H7  H8  H9  H12 H13 H14 H15 H16 H17 H18 H19 H20 H21 H22 H23 H24 H25 
H26 H27 H28 H29 H30 O   C   C1  H   C2  C3  C4  C6  C7  C8  H1  N   C10 C11 C12 
C13 O1  C14 C15 O2  C16 C17 O3  O4  C18 O5  C19 O6  C20 O7  H2  H3  H6  H7  H8  
H9  H12 H13 H14 H15 H16 H17 H18 H19 H20 H21 H22 H23 H24 H25 H26 H27 H28 H29 H30 
O   C   C1  H   C2  C3  C4  C6  C7  C8  H1  N   C10 C11 C12 C13 O1  C14 C15 O2  
C16 C17 O3  O4  C18 O5  C19 O6  C20 O7  H2  H3  H6  H7  H8  H9  H12 H13 H14 H15 
H16 H17 H18 H19 H20 H21 H22 H23 H24 H25 H26 H27 H28 H29 H30 CC  HC1 HC2 CC  HC1 
HC2 O   C   C1  H   C2  C3  C4  C6  C7  C8  H1  N   C10 C11 C12 C13 O1  C14 C15 
O2  C16 C17 O3  O4  C18 O5  C19 O6  C20 O7  H2  H3  H6  H7  H8  H9  H12 H13 H14 
H15 H16 H17 H18 H19 H20 H21 H22 H23 H24 H25 H26 H27 H28 H29 H30 O   C   C1  H   
C2  C3  C4  C6  C7  C8  H1  N   C10 C11 C12 C13 O1  C14 C15 O2  C16 C17 O3  O4  
C18 O5  C19 O6  C20 O7  H2  H3  H6  H7  H8  H9  H12 H13 H14 H15 H16 H17 H18 H19 
H20 H21 H22 H23 H24 H25 H26 H27 H28 H29 H30 O   C   C1  H   C2  C3  C4  C6  C7  
C8  H1  N   C10 C11 C12 C13 O1  C14 C15 O2  C16 C17 O3  O4  C18 O5  C19 O6  C20 
O7  H2  H3  H6  H7  H8  H9  H12 H13 H14 H15 H16 H17 H18 H19 H20 H21 H22 H23 H24 
H25 H26 H27 H28 H29 H30 O   C   C1  H   C2  C3  C4  C6  C7  C8  H1  N   C10 C11 
C12 C13 O1  C14 C15 O2  C16 C17 O3  O4  C18 O5  C19 O6  C20 O7  H2  H3  H6  H7  
H8  H9  H12 H13 H14 H15 H16 H17 H18 H19 H20 H21 H22 H23 H24 H25 H26 H27 H28 H29 
H30 O   C   C1  H   C2  C3  C4  C6  C7  C8  H1  N   C10 C11 C12 C13 O1  C14 C15 
O2  C16 C17 O3  O4  C18 O5  C19 O6  C20 O7  H2  H3  H6  H7  H8  H9  H12 H13 H14 
H15 H16 H17 H18 H19 H20 H21 H22 H23 H24 H25 H26 H27 H28 H29 H30 O   C   C1  H   
C2  C3  C4  C6  C7  C8  H1  N   C10 C11 C12 C13 O1  C14 C15 O2  C16 C17 O3  O4  
C18 O5  C19 O6  C20 O7  H2  H3  H6  H7  H8  H9  H12 H13 H14 H15 H16 H17 H18 H19 
H20 H21 H22 H23 H24 H25 H26 H27 H28 H29 H30 O   C   C1  H   C2  C3  C4  C6  C7  
C8  H1  N   C10 C11 C12 C13 O1  C14 C15 O2  C16 C17 O3  O4  C18 O5  C19 O6  C20 
O7  H2  H3  H6  H7  H8  H9  H12 H13 H14 H15 H16 H17 H18 H19 H20 H21 H22 H23 H24 
H25 H26 H27 H28 H29 H30 O   C   C1  H   C2  C3  C4  C6  C7  C8  H1  N   C10 C11 
C12 C13 O1  C14 C15 O2  C16 C17 O3  O4  C18 O5  C19 O6  C20 O7  H2  H3  H6  H7  
H8  H9  H12 H13 H14 H15 H16 H17 H18 H19 H20 H21 H22 H23 H24 H25 H26 H27 H28 H29 
H30 O   C   C1  H   C2  C3  C4  C6  C7  C8  H1  N   C10 C11 C12 C13 O1  C14 C15 
O2  C16 C17 O3  O4  C18 O5  C19 O6  C20 O7  H2  H3  H6  H7  H8  H9  H12 H13 H14 
H15 H16 H17 H18 H19 H20 H21 H22 H23 H24 H25 H26 H27 H28 H29 H30 O   C   C1  H   
C2  C3  C4  C6  C7  C8  H1  N   C10 C11 C12 C13 O1  C14 C15 O2  C16 C17 O3  O4  
C18 O5  C19 O6  C20 O7  H2  H3  H6  H7  H8  H9  H12 H13 H14 H15 H16 H17 H18 H19 
H20 H21 H22 H23 H24 H25 H26 H27 H28 H29 H30 CC  HC1 HC2 O   H1  H2  O   H1  H2  
O   H1  H2  O   H1  H2  O   H1  H2  O   H1  H2  O   H1  H2  O   H1  H2  O   H1  
H2  O   H1  H2  O   H1  H2  O   H1  H2  O   H1  H2  O   H1  H2  O   H1  H2  O   
H1  H2  O   H1  H2  O   H1  H2  O   H1  H2  O   H1  H2  O   H1  H2  O   H1  H2  
O   H1  H2  O   H1  H2  O   H1  H2  O   H1  H2  O   H1  H2  O   H1  H2  O   H1  
H2  O   H1  H2  O   H1  H2  O   H1  H2  O   H1  H2  O   H1  H2  O   H1  H2  O   
H1  H2  O   H1  H2  O   H1  H2  O   H1  H2  O   H1  H2  O   H1  H2  O   H1  H2  
O   H1  H2  O   H1  H2  O   H1  H2  O   H1  H2  O   H1  H2  O   H1  H2  O   H1  
H2  O   H1  H2  O   H1  H2  O   H1  H2  O   H1  H2  O   H1  H2  O   H1  H2  O   
H1  H2  O   H1  H2  O   H1  H2  O   H1  H2  O   H1  H2  O   H1  H2  O   H1  H2  
O   H1  H2  O   H1  H2  O   H1  H2  O   H1  H2  O   H1  H2  O   H1  H2  O   H1  
H2  O   H1  H2  O   H1  H2  O   H1  H2  O   H1  H2  O   H1  H2  O   H1  H2  O   
H1  H2  O   H1  H2  O   H1  H2  O   H1  H2  O   H1  H2  O   H1  H2  O   H1  H2  
O   H1  H2  O   H1  H2  O   H1  H2  O   H1  H2  O   H1  H2  O   H1  H2  O   H1  
H2  O   H1  H2  O   H1  H2  O   H1  H2  O   H1  H2  O   H1  H2  O   H1  H2  O   
H1  H2  O   H1  H2  O   H1  H2  O   H1  H2  O   H1  H2  O   H1  H2  O   H1  H2  
O   H1  H2  O   H1  H2  O   H1  H2  O   H1  H2  O   H1  H2  O   H1  H2  O   H1  
H2  O   H1  H2  O   H1  H2  O   H1  H2  O   H1  H2  O   H1  H2  O   H1  H2  O   
H1  H2  O   H1  H2  O   H1  H2  O   H1  H2  O   H1  H2  O   H1  H2  O   H1  H2  
O   H1  H2  O   H1  H2  O   H1  H2  O   H1  H2  O   H1  H2  O   H1  H2  O   H1  
H2  O   H1  H2  O   H1  H2  O   H1  H2  O   H1  H2  O   H1  H2  O   H1  H2  O   
H1  H2  O   H1  H2  O   H1  H2  O   H1  H2  O   H1  H2  O   H1  H2  O   H1  H2  
O   H1  H2  O   H1  H2  O   H1  H2  O   H1  H2  O   H1  H2  O   H1  H2  O   H1  
H2  O   H1  H2  O   H1  H2  O   H1  H2  O   H1  H2  O   H1  H2  O   H1  H2  O   
H1  H2  O   H1  H2  O   H1  H2  O   H1  H2  O   H1  H2  O   H1  H2  O   H1  H2  
O   H1  H2  O   H1  H2  O   H1  H2  O   H1  H2  O   H1  H2  O   H1  H2  O   H1  
H2  O   H1  H2  O   H1  H2  O   H1  H2  O   H1  H2  O   H1  H2  O   H1  H2  O   
H1  H2  O   H1  H2  O   H1  H2  O   H1  H2  O   H1  H2  O   H1  H2  O   H1  H2  
O   H1  H2  O   H1  H2  O   H1  H2  O   H1  H2  O   H1  H2  O   H1  H2  O   H1  
H2  O   H1  H2  O   H1  H2  O   H1  H2  O   H1  H2  O   H1  H2  O   H1  H2  O   
H1  H2  O   H1  H2  O   H1  H2  O   H1  H2  O   H1  H2  O   H1  H2  O   H1  H2  
O   H1  H2  O   H1  H2  O   H1  H2  O   H1  H2  O   H1  H2  O   H1  H2  O   H1  
H2  O   H1  H2  O   H1  H2  O   H1  H2  O   H1  H2  O   H1  H2  O   H1  H2  O   
H1  H2  O   H1  H2  O   H1  H2  O   H1  H2  O   H1  H2  O   H1  H2  O   H1  H2  
O   H1  H2  O   H1  H2  O   H1  H2  O   H1  H2  O   H1  H2  O   H1  H2  O   H1  
H2  O   H1  H2  O   H1  H2  O   H1  H2  O   H1  H2  O   H1  H2  O   H1  H2  O   
H1  H2  O   H1  H2  O   H1  H2  O   H1  H2  O   H1  H2  O   H1  H2  O   H1  H2  
O   H1  H2  O   H1  H2  O   H1  H2  O   H1  H2  O   H1  H2  O   H1  H2  O   H1  
H2  O   H1  H2  O   H1  H2  O   H1  H2  O   H1  H2  O   H1  H2  O   H1  H2  O   
H1  H2  O   H1  H2  O   H1  H2  O   H1  H2  O   H1  H2  O   H1  H2  O   H1  H2  
O   H1  H2  O   H1  H2  O   H1  H2  O   H1  H2  O   H1  H2  O   H1  H2  O   H1  
H2  O   H1  H2  O   H1  H2  O   H1  H2  O   H1  H2  O   H1  H2  O   H1  H2  O   
H1  H2  O   H1  H2  O   H1  H2  O   H1  H2  O   H1  H2  O   H1  H2  O   H1  H2  
O   H1  H2  O   H1  H2  O   H1  H2  O   H1  H2  O   H1  H2  O   H1  H2  O   H1  
H2  O   H1  H2  O   H1  H2  O   H1  H2  O   H1  H2  O   H1  H2  O   H1  H2  O   
H1  H2  O   H1  H2  O   H1  H2  O   H1  H2  O   H1  H2  O   H1  H2  O   H1  H2  
O   H1  H2  O   H1  H2  O   H1  H2  O   H1  H2  O   H1  H2  O   H1  H2  O   H1  
H2  O   H1  H2  O   H1  H2  O   H1  H2  O   H1  H2  O   H1  H2  O   H1  H2  O   
H1  H2  O   H1  H2  O   H1  H2  O   H1  H2  O   H1  H2  O   H1  H2  O   H1  H2  
O   H1  H2  O   H1  H2  O   H1  H2  O   H1  H2  O   H1  H2  O   H1  H2  O   H1  
H2  O   H1  H2  O   H1  H2  O   H1  H2  O   H1  H2  O   H1  H2  O   H1  H2  O   
H1  H2  O   H1  H2  O   H1  H2  O   H1  H2  O   H1  H2  O   H1  H2  O   H1  H2  
O   H1  H2  O   H1  H2  O   H1  H2  O   H1  H2  O   H1  H2  O   H1  H2  O   H1  
H2  O   H1  H2  O   H1  H2  O   H1  H2  O   H1  H2  O   H1  H2  O   H1  H2  O   
H1  H2  O   H1  H2  O   H1  H2  O   H1  H2  O   H1  H2  O   H1  H2  O   H1  H2  
O   H1  H2  O   H1  H2  O   H1  H2  O   H1  H2  O   H1  H2  O   H1  H2  O   H1  
H2  O   H1  H2  O   H1  H2  O   H1  H2  O   H1  H2  O   H1  H2  O   H1  H2  O   
H1  H2  O   H1  H2  O   H1  H2  O   H1  H2  O   H1  H2  O   H1  H2  O   H1  H2  
O   H1  H2  O   H1  H2  O   H1  H2  O   H1  H2  O   H1  H2  O   H1  H2  O   H1  
H2  O   H1  H2  O   H1  H2  O   H1  H2  O   H1  H2  O   H1  H2  O   H1  H2  O   
H1  H2  O   H1  H2  O   H1  H2  O   H1  H2  O   H1  H2  O   H1  H2  O   H1  H2  
O   H1  H2  O   H1  H2  O   H1  H2  O   H1  H2  O   H1  H2  O   H1  H2  O   H1  
H2  O   H1  H2  O   H1  H2  O   H1  H2  O   H1  H2  O   H1  H2  O   H1  H2  O   
H1  H2  O   H1  H2  O   H1  H2  O   H1  H2  O   H1  H2  O   H1  H2  O   H1  H2  
O   H1  H2  O   H1  H2  O   H1  H2  O   H1  H2  O   H1  H2  O   H1  H2  O   H1  
H2  O   H1  H2  O   H1  H2  O   H1  H2  O   H1  H2  O   H1  H2  O   H1  H2  O   
H1  H2  O   H1  H2  O   H1  H2  O   H1  H2  O   H1  H2  O   H1  H2  O   H1  H2  
O   H1  H2  O   H1  H2  O   H1  H2  O   H1  H2  O   H1  H2  O   H1  H2  O   H1  
H2  O   H1  H2  O   H1  H2  O   H1  H2  O   H1  H2  O   H1  H2  O   H1  H2  O   
H1  H2  O   H1  H2  O   H1  H2  O   H1  H2  O   H1  H2  O   H1  H2  O   H1  H2  
O   H1  H2  O   H1  H2  O   H1  H2  O   H1  H2  O   H1  H2  O   H1  H2  O   H1  
H2  O   H1  H2  O   H1  H2  O   H1  H2  O   H1  H2  O   H1  H2  O   H1  H2  O   
H1  H2  O   H1  H2  O   H1  H2  O   H1  H2  O   H1  H2  O   H1  H2  O   H1  H2  
O   H1  H2  O   H1  H2  O   H1  H2  O   H1  H2  O   H1  H2  O   H1  H2  O   H1  
H2  O   H1  H2  O   H1  H2  O   H1  H2  O   H1  H2  O   H1  H2  O   H1  H2  O   
H1  H2  O   H1  H2  O   H1  H2  O   H1  H2  O   H1  H2  O   H1  H2  O   H1  H2  
O   H1  H2  O   H1  H2  O   H1  H2  O   H1  H2  O   H1  H2  O   H1  H2  O   H1  
H2  O   H1  H2  O   H1  H2  O   H1  H2  O   H1  H2  O   H1  H2  O   H1  H2  O   
H1  H2  O   H1  H2  O   H1  H2  O   H1  H2  O   H1  H2  O   H1  H2  O   H1  H2  
O   H1  H2  O   H1  H2  O   H1  H2  O   H1  H2  O   H1  H2  O   H1  H2  O   H1  
H2  O   H1  H2  O   H1  H2  O   H1  H2  O   H1  H2  O   H1  H2  O   H1  H2  O   
H1  H2  O   H1  H2  O   H1  H2  O   H1  H2  O   H1  H2  O   H1  H2  O   H1  H2  
O   H1  H2  O   H1  H2  O   H1  H2  O   H1  H2  O   H1  H2  O   H1  H2  O   H1  
H2  O   H1  H2  O   H1  H2  O   H1  H2  O   H1  H2  O   H1  H2  O   H1  H2  O   
H1  H2  O   H1  H2  O   H1  H2  O   H1  H2  O   H1  H2  O   H1  H2  O   H1  H2  
O   H1  H2  O   H1  H2  O   H1  H2  O   H1  H2  O   H1  H2  O   H1  H2  O   H1  
H2  O   H1  H2  O   H1  H2  O   H1  H2  O   H1  H2  O   H1  H2  O   H1  H2  O   
H1  H2  O   H1  H2  O   H1  H2  O   H1  H2  O   H1  H2  O   H1  H2  O   H1  H2  
O   H1  H2  O   H1  H2  O   H1  H2  O   H1  H2  O   H1  H2  O   H1  H2  O   H1  
H2  O   H1  H2  O   H1  H2  O   H1  H2  O   H1  H2  O   H1  H2  O   H1  H2  O   
H1  H2  O   H1  H2  O   H1  H2  O   H1  H2  O   H1  H2  O   H1  H2  O   H1  H2  
O   H1  H2  O   H1  H2  O   H1  H2  O   H1  H2  O   H1  H2  O   H1  H2  O   H1  
H2  O   H1  H2  O   H1  H2  O   H1  H2  O   H1  H2  O   H1  H2  O   H1  H2  O   
H1  H2  O   H1  H2  O   H1  H2  O   H1  H2  O   H1  H2  O   H1  H2  O   H1  H2  
O   H1  H2  O   H1  H2  O   H1  H2  O   H1  H2  O   H1  H2  O   H1  H2  O   H1  
H2  O   H1  H2  O   H1  H2  O   H1  H2  O   H1  H2  O   H1  H2  O   H1  H2  O   
H1  H2  O   H1  H2  O   H1  H2  O   H1  H2  O   H1  H2  O   H1  H2  O   H1  H2  
O   H1  H2  O   H1  H2  O   H1  H2  O   H1  H2  O   H1  H2  O   H1  H2  O   H1  
H2  O   H1  H2  O   H1  H2  O   H1  H2  O   H1  H2  O   H1  H2  O   H1  H2  O   
H1  H2  O   H1  H2  O   H1  H2  O   H1  H2  O   H1  H2  O   H1  H2  O   H1  H2  
O   H1  H2  O   H1  H2  O   H1  H2  O   H1  H2  O   H1  H2  O   H1  H2  O   H1  
H2  O   H1  H2  O   H1  H2  O   H1  H2  O   H1  H2  O   H1  H2  O   H1  H2  O   
H1  H2  O   H1  H2  O   H1  H2  O   H1  H2  O   H1  H2  O   H1  H2  O   H1  H2  
O   H1  H2  O   H1  H2  O   H1  H2  O   H1  H2  O   H1  H2  O   H1  H2  O   H1  
H2  O   H1  H2  O   H1  H2  O   H1  H2  O   H1  H2  O   H1  H2  O   H1  H2  O   
H1  H2  O   H1  H2  O   H1  H2  O   H1  H2  O   H1  H2  O   H1  H2  O   H1  H2  
O   H1  H2  O   H1  H2  O   H1  H2  O   H1  H2  O   H1  H2  O   H1  H2  O   H1  
H2  O   H1  H2  O   H1  H2  O   H1  H2  O   H1  H2  O   H1  H2  O   H1  H2  O   
H1  H2  O   H1  H2  O   H1  H2  O   H1  H2  O   H1  H2  O   H1  H2  O   H1  H2  
O   H1  H2  O   H1  H2  O   H1  H2  O   H1  H2  O   H1  H2  O   H1  H2  O   H1  
H2  O   H1  H2  O   H1  H2  O   H1  H2  O   H1  H2  O   H1  H2  O   H1  H2  O   
H1  H2  O   H1  H2  O   H1  H2  O   H1  H2  O   H1  H2  O   H1  H2  O   H1  H2  
O   H1  H2  O   H1  H2  O   H1  H2  O   H1  H2  O   H1  H2  O   H1  H2  O   H1  
H2  O   H1  H2  O   H1  H2  O   H1  H2  O   H1  H2  O   H1  H2  O   H1  H2  O   
H1  H2  O   H1  H2  O   H1  H2  O   H1  H2  O   H1  H2  O   H1  H2  O   H1  H2  
O   H1  H2  O   H1  H2  O   H1  H2  O   H1  H2  O   H1  H2  O   H1  H2  O   H1  
H2  O   H1  H2  O   H1  H2  O   H1  H2  O   H1  H2  O   H1  H2  O   H1  H2  O   
H1  H2  O   H1  H2  O   H1  H2  O   H1  H2  O   H1  H2  O   H1  H2  O   H1  H2  
O   H1  H2  O   H1  H2  O   H1  H2  O   H1  H2  O   H1  H2  O   H1  H2  O   H1  
H2  O   H1  H2  O   H1  H2  O   H1  H2  O   H1  H2  O   H1  H2  O   H1  H2  O   
H1  H2  O   H1  H2  O   H1  H2  O   H1  H2  O   H1  H2  O   H1  H2  O   H1  H2  
O   H1  H2  O   H1  H2  O   H1  H2  O   H1  H2  O   H1  H2  O   H1  H2  O   H1  
H2  O   H1  H2  O   H1  H2  O   H1  H2  O   H1  H2  O   H1  H2  O   H1  H2  O   
H1  H2  O   H1  H2  O   H1  H2  O   H1  H2  O   H1  H2  O   H1  H2  O   H1  H2  
O   H1  H2  O   H1  H2  O   H1  H2  O   H1  H2  O   H1  H2  O   H1  H2  O   H1  
H2  O   H1  H2  O   H1  H2  O   H1  H2  O   H1  H2  O   H1  H2  O   H1  H2  O   
H1  H2  O   H1  H2  O   H1  H2  O   H1  H2  O   H1  H2  O   H1  H2  O   H1  H2  
O   H1  H2  O   H1  H2  O   H1  H2  O   H1  H2  O   H1  H2  O   H1  H2  O   H1  
H2  O   H1  H2  O   H1  H2  O   H1  H2  O   H1  H2  O   H1  H2  O   H1  H2  O   
H1  H2  O   H1  H2  O   H1  H2  O   H1  H2  O   H1  H2  O   H1  H2  O   H1  H2  
O   H1  H2  O   H1  H2  O   H1  H2  O   H1  H2  O   H1  H2  O   H1  H2  O   H1  
H2  O   H1  H2  O   H1  H2  O   H1  H2  O   H1  H2  O   H1  H2  O   H1  H2  O   
H1  H2  O   H1  H2  O   H1  H2  O   H1  H2  O   H1  H2  O   H1  H2  O   H1  H2  
O   H1  H2  O   H1  H2  O   H1  H2  O   H1  H2  O   H1  H2  O   H1  H2  O   H1  
H2  O   H1  H2  O   H1  H2  O   H1  H2  O   H1  H2  O   H1  H2  O   H1  H2  O   
H1  H2  O   H1  H2  O   H1  H2  O   H1  H2  O   H1  H2  O   H1  H2  O   H1  H2  
O   H1  H2  O   H1  H2  O   H1  H2  O   H1  H2  O   H1  H2  O   H1  H2  O   H1  
H2  O   H1  H2  O   H1  H2  O   H1  H2  O   H1  H2  O   H1  H2  O   H1  H2  O   
H1  H2  O   H1  H2  O   H1  H2  O   H1  H2  O   H1  H2  O   H1  H2  O   H1  H2  
O   H1  H2  O   H1  H2  O   H1  H2  O   H1  H2  O   H1  H2  O   H1  H2  O   H1  
H2  O   H1  H2  O   H1  H2  O   H1  H2  O   H1  H2  O   H1  H2  O   H1  H2  O   
H1  H2  O   H1  H2  O   H1  H2  O   H1  H2  O   H1  H2  O   H1  H2  O   H1  H2  
O   H1  H2  O   H1  H2  O   H1  H2  O   H1  H2  O   H1  H2  O   H1  H2  O   H1  
H2  O   H1  H2  O   H1  H2  O   H1  H2  O   H1  H2  O   H1  H2  O   H1  H2  O   
H1  H2  O   H1  H2  O   H1  H2  O   H1  H2  O   H1  H2  O   H1  H2  O   H1  H2  
O   H1  H2  O   H1  H2  O   H1  H2  O   H1  H2  O   H1  H2  O   H1  H2  O   H1  
H2  O   H1  H2  O   H1  H2  O   H1  H2  O   H1  H2  O   H1  H2  O   H1  H2  O   
H1  H2  O   H1  H2  O   H1  H2  O   H1  H2  O   H1  H2  O   H1  H2  O   H1  H2  
O   H1  H2  O   H1  H2  O   H1  H2  O   H1  H2  O   H1  H2  O   H1  H2  O   H1  
H2  O   H1  H2  O   H1  H2  O   H1  H2  O   H1  H2  O   H1  H2  O   H1  H2  O   
H1  H2  O   H1  H2  O   H1  H2  O   H1  H2  O   H1  H2  O   H1  H2  O   H1  H2  
O   H1  H2  O   H1  H2  O   H1  H2  O   H1  H2  O   H1  H2  O   H1  H2  O   H1  
H2  O   H1  H2  O   H1  H2  O   H1  H2  O   H1  H2  O   H1  H2  O   H1  H2  O   
H1  H2  O   H1  H2  O   H1  H2  O   H1  H2  O   H1  H2  O   H1  H2  O   H1  H2  
O   H1  H2  O   H1  H2  O   H1  H2  O   H1  H2  O   H1  H2  O   H1  H2  O   H1  
H2  O   H1  H2  O   H1  H2  O   H1  H2  O   H1  H2  O   H1  H2  O   H1  H2  O   
H1  H2  O   H1  H2  O   H1  H2  O   H1  H2  O   H1  H2  O   H1  H2  O   H1  H2  
O   H1  H2  O   H1  H2  O   H1  H2  O   H1  H2  O   H1  H2  O   H1  H2  O   H1  
H2  O   H1  H2  O   H1  H2  O   H1  H2  O   H1  H2  O   H1  H2  O   H1  H2  O   
H1  H2  O   H1  H2  O   H1  H2  O   H1  H2  O   H1  H2  O   H1  H2  O   H1  H2  
O   H1  H2  O   H1  H2  O   H1  H2  O   H1  H2  O   H1  H2  O   H1  H2  O   H1  
H2  O   H1  H2  O   H1  H2  O   H1  H2  O   H1  H2  O   H1  H2  O   H1  H2  O   
H1  H2  O   H1  H2  O   H1  H2  O   H1  H2  O   H1  H2  O   H1  H2  O   H1  H2  
O   H1  H2  O   H1  H2  O   H1  H2  O   H1  H2  O   H1  H2  O   H1  H2  O   H1  
H2  O   H1  H2  O   H1  H2  O   H1  H2  O   H1  H2  O   H1  H2  O   H1  H2  O   
H1  H2  O   H1  H2  O   H1  H2  O   H1  H2  O   H1  H2  O   H1  H2  O   H1  H2  
O   H1  H2  O   H1  H2  O   H1  H2  O   H1  H2  O   H1  H2  O   H1  H2  O   H1  
H2  O   H1  H2  O   H1  H2  O   H1  H2  O   H1  H2  O   H1  H2  O   H1  H2  O   
H1  H2  O   H1  H2  O   H1  H2  O   H1  H2  O   H1  H2  O   H1  H2  O   H1  H2  
O   H1  H2  O   H1  H2  O   H1  H2  O   H1  H2  O   H1  H2  O   H1  H2  O   H1  
H2  O   H1  H2  O   H1  H2  O   H1  H2  O   H1  H2  O   H1  H2  O   H1  H2  O   
H1  H2  O   H1  H2  O   H1  H2  O   H1  H2  O   H1  H2  O   H1  H2  O   H1  H2  
O   H1  H2  O   H1  H2  O   H1  H2  O   H1  H2  O   H1  H2  O   H1  H2  O   H1  
H2  O   H1  H2  O   H1  H2  O   H1  H2  O   H1  H2  O   H1  H2  O   H1  H2  O   
H1  H2  O   H1  H2  O   H1  H2  O   H1  H2  O   H1  H2  O   H1  H2  O   H1  H2  
O   H1  H2  O   H1  H2  O   H1  H2  O   H1  H2  O   H1  H2  O   H1  H2  O   H1  
H2  O   H1  H2  O   H1  H2  O   H1  H2  O   H1  H2  O   H1  H2  O   H1  H2  O   
H1  H2  O   H1  H2  O   H1  H2  O   H1  H2  O   H1  H2  O   H1  H2  O   H1  H2  
O   H1  H2  O   H1  H2  O   H1  H2  O   H1  H2  O   H1  H2  O   H1  H2  O   H1  
H2  O   H1  H2  O   H1  H2  O   H1  H2  O   H1  H2  O   H1  H2  O   H1  H2  O   
H1  H2  O   H1  H2  O   H1  H2  O   H1  H2  O   H1  H2  O   H1  H2  O   H1  H2  
O   H1  H2  O   H1  H2  O   H1  H2  O   H1  H2  O   H1  H2  O   H1  H2  O   H1  
H2  O   H1  H2  O   H1  H2  O   H1  H2  O   H1  H2  O   H1  H2  O   H1  H2  O   
H1  H2  O   H1  H2  O   H1  H2  O   H1  H2  O   H1  H2  O   H1  H2  O   H1  H2  
O   H1  H2  O   H1  H2  O   H1  H2  O   H1  H2  O   H1  H2  O   H1  H2  O   H1  
H2  O   H1  H2  O   H1  H2  O   H1  H2  O   H1  H2  O   H1  H2  O   H1  H2  O   
H1  H2  O   H1  H2  O   H1  H2  O   H1  H2  O   H1  H2  O   H1  H2  O   H1  H2  
O   H1  H2  O   H1  H2  O   H1  H2  O   H1  H2  O   H1  H2  O   H1  H2  O   H1  
H2  O   H1  H2  O   H1  H2  O   H1  H2  O   H1  H2  O   H1  H2  O   H1  H2  O   
H1  H2  O   H1  H2  O   H1  H2  O   H1  H2  O   H1  H2  O   H1  H2  O   H1  H2  
O   H1  H2  O   H1  H2  O   H1  H2  O   H1  H2  O   H1  H2  O   H1  H2  O   H1  
H2  O   H1  H2  O   H1  H2  O   H1  H2  O   H1  H2  O   H1  H2  O   H1  H2  O   
H1  H2  O   H1  H2  O   H1  H2  O   H1  H2  O   H1  H2  O   H1  H2  O   H1  H2  
O   H1  H2  O   H1  H2  O   H1  H2  O   H1  H2  O   H1  H2  O   H1  H2  O   H1  
H2  O   H1  H2  O   H1  H2  O   H1  H2  O   H1  H2  O   H1  H2  O   H1  H2  O   
H1  H2  O   H1  H2  O   H1  H2  O   H1  H2  O   H1  H2  O   H1  H2  O   H1  H2  
O   H1  H2  O   H1  H2  O   H1  H2  O   H1  H2  O   H1  H2  O   H1  H2  O   H1  
H2  O   H1  H2  O   H1  H2  O   H1  H2  O   H1  H2  O   H1  H2  O   H1  H2  O   
H1  H2  O   H1  H2  O   H1  H2  O   H1  H2  O   H1  H2  O   H1  H2  O   H1  H2  
O   H1  H2  O   H1  H2  O   H1  H2  O   H1  H2  O   H1  H2  O   H1  H2  O   H1  
H2  O   H1  H2  O   H1  H2  O   H1  H2  O   H1  H2  O   H1  H2  O   H1  H2  O   
H1  H2  O   H1  H2  O   H1  H2  O   H1  H2  O   H1  H2  O   H1  H2  O   H1  H2  
O   H1  H2  O   H1  H2  O   H1  H2  O   H1  H2  O   H1  H2  O   H1  H2  O   H1  
H2  O   H1  H2  O   H1  H2  O   H1  H2  O   H1  H2  O   H1  H2  O   H1  H2  O   
H1  H2  O   H1  H2  O   H1  H2  O   H1  H2  O   H1  H2  O   H1  H2  O   H1  H2  
O   H1  H2  O   H1  H2  O   H1  H2  O   H1  H2  O   H1  H2  O   H1  H2  O   H1  
H2  O   H1  H2  O   H1  H2  O   H1  H2  O   H1  H2  O   H1  H2  O   H1  H2  O   
H1  H2  O   H1  H2  O   H1  H2  O   H1  H2  O   H1  H2  O   H1  H2  O   H1  H2  
O   H1  H2  O   H1  H2  O   H1  H2  O   H1  H2  O   H1  H2  O   H1  H2  O   H1  
H2  O   H1  H2  O   H1  H2  O   H1  H2  O   H1  H2  O   H1  H2  O   H1  H2  O   
H1  H2  O   H1  H2  O   H1  H2  O   H1  H2  O   H1  H2  O   H1  H2  O   H1  H2  
O   H1  H2  O   H1  H2  O   H1  H2  O   H1  H2  O   H1  H2  O   H1  H2  O   H1  
H2  O   H1  H2  O   H1  H2  O   H1  H2  O   H1  H2  O   H1  H2  O   H1  H2  O   
H1  H2  O   H1  H2  O   H1  H2  O   H1  H2  O   H1  H2  O   H1  H2  O   H1  H2  
O   H1  H2  O   H1  H2  O   H1  H2  O   H1  H2  O   H1  H2  O   H1  H2  O   H1  
H2  O   H1  H2  O   H1  H2  O   H1  H2  O   H1  H2  O   H1  H2  O   H1  H2  O   
H1  H2  O   H1  H2  O   H1  H2  O   H1  H2  O   H1  H2  O   H1  H2  O   H1  H2  
O   H1  H2  O   H1  H2  O   H1  H2  O   H1  H2  O   H1  H2  O   H1  H2  O   H1  
H2  O   H1  H2  O   H1  H2  O   H1  H2  O   H1  H2  O   H1  H2  O   H1  H2  O   
H1  H2  O   H1  H2  O   H1  H2  O   H1  H2  O   H1  H2  O   H1  H2  O   H1  H2  
O   H1  H2  O   H1  H2  O   H1  H2  O   H1  H2  O   H1  H2  O   H1  H2  O   H1  
H2  O   H1  H2  O   H1  H2  O   H1  H2  O   H1  H2  O   H1  H2  O   H1  H2  O   
H1  H2  O   H1  H2  O   H1  H2  O   H1  H2  O   H1  H2  O   H1  H2  O   H1  H2  
O   H1  H2  O   H1  H2  O   H1  H2  O   H1  H2  O   H1  H2  O   H1  H2  O   H1  
H2  O   H1  H2  O   H1  H2  O   H1  H2  O   H1  H2  O   H1  H2  O   H1  H2  O   
H1  H2  O   H1  H2  O   H1  H2  O   H1  H2  O   H1  H2  O   H1  H2  O   H1  H2  
O   H1  H2  O   H1  H2  O   H1  H2  O   H1  H2  O   H1  H2  O   H1  H2  O   H1  
H2  O   H1  H2  O   H1  H2  O   H1  H2  O   H1  H2  O   H1  H2  O   H1  H2  O   
H1  H2  O   H1  H2  O   H1  H2  O   H1  H2  O   H1  H2  O   H1  H2  O   H1  H2  
O   H1  H2  O   H1  H2  O   H1  H2  O   H1  H2  O   H1  H2  O   H1  H2  O   H1  
H2  O   H1  H2  O   H1  H2  O   H1  H2  O   H1  H2  O   H1  H2  O   H1  H2  O   
H1  H2  O   H1  H2  O   H1  H2  O   H1  H2  O   H1  H2  O   H1  H2  O   H1  H2  
O   H1  H2  O   H1  H2  O   H1  H2  O   H1  H2  O   H1  H2  O   H1  H2  O   H1  
H2  O   H1  H2  O   H1  H2  O   H1  H2  O   H1  H2  O   H1  H2  O   H1  H2  O   
H1  H2  O   H1  H2  O   H1  H2  O   H1  H2  O   H1  H2  O   H1  H2  O   H1  H2  
O   H1  H2  O   H1  H2  O   H1  H2  O   H1  H2  O   H1  H2  O   H1  H2  O   H1  
H2  O   H1  H2  O   H1  H2  O   H1  H2  O   H1  H2  O   H1  H2  O   H1  H2  O   
H1  H2  O   H1  H2  O   H1  H2  O   H1  H2  O   H1  H2  O   H1  H2  O   H1  H2  
O   H1  H2  O   H1  H2  O   H1  H2  O   H1  H2  O   H1  H2  O   H1  H2  O   H1  
H2  O   H1  H2  O   H1  H2  O   H1  H2  O   H1  H2  O   H1  H2  O   H1  H2  O   
H1  H2  O   H1  H2  O   H1  H2  O   H1  H2  O   H1  H2  O   H1  H2  O   H1  H2  
O   H1  H2  O   H1  H2  O   H1  H2  O   H1  H2  O   H1  H2  O   H1  H2  O   H1  
H2  O   H1  H2  O   H1  H2  O   H1  H2  O   H1  H2  O   H1  H2  O   H1  H2  O   
H1  H2  O   H1  H2  O   H1  H2  O   H1  H2  O   H1  H2  O   H1  H2  O   H1  H2  
O   H1  H2  O   H1  H2  O   H1  H2  O   H1  H2  O   H1  H2  O   H1  H2  O   H1  
H2  O   H1  H2  O   H1  H2  O   H1  H2  O   H1  H2  O   H1  H2  O   H1  H2  O   
H1  H2  O   H1  H2  O   H1  H2  O   H1  H2  O   H1  H2  O   H1  H2  O   H1  H2  
O   H1  H2  O   H1  H2  O   H1  H2  O   H1  H2  O   H1  H2  O   H1  H2  O   H1  
H2  O   H1  H2  O   H1  H2  O   H1  H2  O   H1  H2  O   H1  H2  O   H1  H2  O   
H1  H2  O   H1  H2  O   H1  H2  O   H1  H2  O   H1  H2  O   H1  H2  O   H1  H2  
O   H1  H2  O   H1  H2  O   H1  H2  O   H1  H2  O   H1  H2  O   H1  H2  O   H1  
H2  O   H1  H2  O   H1  H2  O   H1  H2  O   H1  H2  O   H1  H2  O   H1  H2  O   
H1  H2  O   H1  H2  O   H1  H2  O   H1  H2  O   H1  H2  O   H1  H2  O   H1  H2  
O   H1  H2  O   H1  H2  O   H1  H2  O   H1  H2  O   H1  H2  O   H1  H2  O   H1  
H2  O   H1  H2  O   H1  H2  O   H1  H2  O   H1  H2  O   H1  H2  O   H1  H2  O   
H1  H2  O   H1  H2  O   H1  H2  O   H1  H2  O   H1  H2  O   H1  H2  O   H1  H2  
O   H1  H2  O   H1  H2  O   H1  H2  O   H1  H2  O   H1  H2  O   H1  H2  O   H1  
H2  O   H1  H2  O   H1  H2  O   H1  H2  O   H1  H2  O   H1  H2  O   H1  H2  O   
H1  H2  O   H1  H2  O   H1  H2  O   H1  H2  O   H1  H2  O   H1  H2  O   H1  H2  
O   H1  H2  O   H1  H2  O   H1  H2  O   H1  H2  O   H1  H2  O   H1  H2  O   H1  
H2  O   H1  H2  O   H1  H2  O   H1  H2  O   H1  H2  O   H1  H2  O   H1  H2  O   
H1  H2  O   H1  H2  O   H1  H2  O   H1  H2  O   H1  H2  O   H1  H2  O   H1  H2  
O   H1  H2  O   H1  H2  O   H1  H2  O   H1  H2  O   H1  H2  O   H1  H2  O   H1  
H2  O   H1  H2  O   H1  H2  O   H1  H2  O   H1  H2  O   H1  H2  O   H1  H2  O   
H1  H2  O   H1  H2  O   H1  H2  O   H1  H2  O   H1  H2  O   H1  H2  O   H1  H2  
O   H1  H2  O   H1  H2  O   H1  H2  O   H1  H2  O   H1  H2  O   H1  H2  O   H1  
H2  O   H1  H2  O   H1  H2  O   H1  H2  O   H1  H2  O   H1  H2  O   H1  H2  O   
H1  H2  O   H1  H2  O   H1  H2  O   H1  H2  O   H1  H2  O   H1  H2  O   H1  H2  
O   H1  H2  O   H1  H2  O   H1  H2  O   H1  H2  O   H1  H2  O   H1  H2  O   H1  
H2  O   H1  H2  O   H1  H2  O   H1  H2  O   H1  H2  O   H1  H2  O   H1  H2  O   
H1  H2  O   H1  H2  O   H1  H2  O   H1  H2  O   H1  H2  O   H1  H2  O   H1  H2  
O   H1  H2  O   H1  H2  O   H1  H2  O   H1  H2  O   H1  H2  O   H1  H2  O   H1  
H2  O   H1  H2  O   H1  H2  O   H1  H2  O   H1  H2  O   H1  H2  O   H1  H2  O   
H1  H2  O   H1  H2  O   H1  H2  O   H1  H2  O   H1  H2  O   H1  H2  O   H1  H2  
O   H1  H2  O   H1  H2  O   H1  H2  O   H1  H2  O   H1  H2  O   H1  H2  O   H1  
H2  O   H1  H2  O   H1  H2  O   H1  H2  O   H1  H2  O   H1  H2  O   H1  H2  O   
H1  H2  O   H1  H2  O   H1  H2  O   H1  H2  O   H1  H2  O   H1  H2  O   H1  H2  
O   H1  H2  O   H1  H2  O   H1  H2  O   H1  H2  O   H1  H2  O   H1  H2  O   H1  
H2  O   H1  H2  O   H1  H2  O   H1  H2  O   H1  H2  O   H1  H2  O   H1  H2  O   
H1  H2  O   H1  H2  O   H1  H2  O   H1  H2  O   H1  H2  O   H1  H2  O   H1  H2  
O   H1  H2  O   H1  H2  O   H1  H2  O   H1  H2  O   H1  H2  O   H1  H2  O   H1  
H2  O   H1  H2  O   H1  H2  O   H1  H2  O   H1  H2  O   H1  H2  O   H1  H2  O   
H1  H2  O   H1  H2  O   H1  H2  O   H1  H2  O   H1  H2  O   H1  H2  O   H1  H2  
O   H1  H2  O   H1  H2  O   H1  H2  O   H1  H2  O   H1  H2  O   H1  H2  O   H1  
H2  O   H1  H2  O   H1  H2  O   H1  H2  O   H1  H2  O   H1  H2  O   H1  H2  O   
H1  H2  O   H1  H2  O   H1  H2  O   H1  H2  O   H1  H2  O   H1  H2  O   H1  H2  
O   H1  H2  O   H1  H2  O   H1  H2  O   H1  H2  O   H1  H2  O   H1  H2  O   H1  
H2  O   H1  H2  O   H1  H2  O   H1  H2  O   H1  H2  O   H1  H2  O   H1  H2  O   
H1  H2  O   H1  H2  O   H1  H2  O   H1  H2  O   H1  H2  O   H1  H2  O   H1  H2  
O   H1  H2  O   H1  H2  O   H1  H2  O   H1  H2  O   H1  H2  O   H1  H2  O   H1  
H2  O   H1  H2  O   H1  H2  O   H1  H2  O   H1  H2  O   H1  H2  O   H1  H2  O   
H1  H2  O   H1  H2  O   H1  H2  O   H1  H2  O   H1  H2  O   H1  H2  O   H1  H2  
O   H1  H2  O   H1  H2  O   H1  H2  O   H1  H2  O   H1  H2  O   H1  H2  O   H1  
H2  O   H1  H2  O   H1  H2  O   H1  H2  O   H1  H2  O   H1  H2  O   H1  H2  O   
H1  H2  O   H1  H2  O   H1  H2  O   H1  H2  O   H1  H2  O   H1  H2  O   H1  H2  
O   H1  H2  O   H1  H2  O   H1  H2  O   H1  H2  O   H1  H2  O   H1  H2  O   H1  
H2  O   H1  H2  O   H1  H2  O   H1  H2  O   H1  H2  O   H1  H2  O   H1  H2  O   
H1  H2  O   H1  H2  O   H1  H2  O   H1  H2  O   H1  H2  O   H1  H2  O   H1  H2  
O   H1  H2  O   H1  H2  O   H1  H2  O   H1  H2  O   H1  H2  O   H1  H2  O   H1  
H2  O   H1  H2  O   H1  H2  O   H1  H2  O   H1  H2  O   H1  H2  O   H1  H2  O   
H1  H2  O   H1  H2  O   H1  H2  O   H1  H2  O   H1  H2  O   H1  H2  O   H1  H2  
O   H1  H2  O   H1  H2  O   H1  H2  O   H1  H2  O   H1  H2  O   H1  H2  O   H1  
H2  O   H1  H2  O   H1  H2  O   H1  H2  O   H1  H2  O   H1  H2  O   H1  H2  O   
H1  H2  O   H1  H2  O   H1  H2  O   H1  H2  O   H1  H2  O   H1  H2  O   H1  H2  
O   H1  H2  O   H1  H2  O   H1  H2  O   H1  H2  O   H1  H2  O   H1  H2  O   H1  
H2  O   H1  H2  O   H1  H2  O   H1  H2  O   H1  H2  O   H1  H2  O   H1  H2  O   
H1  H2  O   H1  H2  O   H1  H2  O   H1  H2  O   H1  H2  O   H1  H2  O   H1  H2  
O   H1  H2  O   H1  H2  O   H1  H2  O   H1  H2  O   H1  H2  O   H1  H2  O   H1  
H2  O   H1  H2  O   H1  H2  O   H1  H2  O   H1  H2  O   H1  H2  O   H1  H2  O   
H1  H2  O   H1  H2  O   H1  H2  O   H1  H2  O   H1  H2  O   H1  H2  O   H1  H2  
O   H1  H2  O   H1  H2  O   H1  H2  O   H1  H2  O   H1  H2  O   H1  H2  O   H1  
H2  O   H1  H2  O   H1  H2  O   H1  H2  O   H1  H2  O   H1  H2  O   H1  H2  O   
H1  H2  O   H1  H2  O   H1  H2  O   H1  H2  O   H1  H2  O   H1  H2  O   H1  H2  
O   H1  H2  O   H1  H2  O   H1  H2  O   H1  H2  O   H1  H2  O   H1  H2  O   H1  
H2  O   H1  H2  O   H1  H2  O   H1  H2  O   H1  H2  O   H1  H2  O   H1  H2  O   
H1  H2  O   H1  H2  O   H1  H2  O   H1  H2  O   H1  H2  O   H1  H2  O   H1  H2  
O   H1  H2  O   H1  H2  O   H1  H2  O   H1  H2  O   H1  H2  O   H1  H2  O   H1  
H2  O   H1  H2  O   H1  H2  O   H1  H2  O   H1  H2  O   H1  H2  O   H1  H2  O   
H1  H2  O   H1  H2  O   H1  H2  O   H1  H2  O   H1  H2  O   H1  H2  O   H1  H2  
O   H1  H2  O   H1  H2  O   H1  H2  O   H1  H2  O   H1  H2  O   H1  H2  O   H1  
H2  O   H1  H2  O   H1  H2  O   H1  H2  O   H1  H2  O   H1  H2  O   H1  H2  O   
H1  H2  O   H1  H2  O   H1  H2  O   H1  H2  O   H1  H2  O   H1  H2  O   H1  H2  
O   H1  H2  O   H1  H2  O   H1  H2  O   H1  H2  O   H1  H2  O   H1  H2  O   H1  
H2  O   H1  H2  O   H1  H2  O   H1  H2  O   H1  H2  O   H1  H2  O   H1  H2  O   
H1  H2  O   H1  H2  O   H1  H2  O   H1  H2  O   H1  H2  O   H1  H2  O   H1  H2  
O   H1  H2  O   H1  H2  O   H1  H2  O   H1  H2  O   H1  H2  O   H1  H2  O   H1  
H2  O   H1  H2  O   H1  H2  O   H1  H2  O   H1  H2  O   H1  H2  O   H1  H2  O   
H1  H2  O   H1  H2  O   H1  H2  O   H1  H2  O   H1  H2  O   H1  H2  O   H1  H2  
O   H1  H2  O   H1  H2  O   H1  H2  O   H1  H2  O   H1  H2  O   H1  H2  O   H1  
H2  O   H1  H2  O   H1  H2  O   H1  H2  O   H1  H2  O   H1  H2  O   H1  H2  O   
H1  H2  O   H1  H2  O   H1  H2  O   H1  H2  O   H1  H2  O   H1  H2  O   H1  H2  
O   H1  H2  O   H1  H2  O   H1  H2  O   H1  H2  O   H1  H2  O   H1  H2  O   H1  
H2  O   H1  H2  O   H1  H2  O   H1  H2  O   H1  H2  O   H1  H2  O   H1  H2  O   
H1  H2  O   H1  H2  O   H1  H2  O   H1  H2  O   H1  H2  O   H1  H2  O   H1  H2  
O   H1  H2  O   H1  H2  O   H1  H2  O   H1  H2  O   H1  H2  O   H1  H2  O   H1  
H2  O   H1  H2  O   H1  H2  O   H1  H2  O   H1  H2  O   H1  H2  O   H1  H2  O   
H1  H2  O   H1  H2  O   H1  H2  O   H1  H2  O   H1  H2  O   H1  H2  O   H1  H2  
O   H1  H2  O   H1  H2  O   H1  H2  O   H1  H2  O   H1  H2  O   H1  H2  O   H1  
H2  O   H1  H2  O   H1  H2  O   H1  H2  O   H1  H2  O   H1  H2  O   H1  H2  O   
H1  H2  O   H1  H2  O   H1  H2  O   H1  H2  O   H1  H2  O   H1  H2  O   H1  H2  
O   H1  H2  O   H1  H2  O   H1  H2  O   H1  H2  O   H1  H2  O   H1  H2  O   H1  
H2  O   H1  H2  O   H1  H2  O   H1  H2  O   H1  H2  O   H1  H2  O   H1  H2  O   
H1  H2  O   H1  H2  O   H1  H2  O   H1  H2  O   H1  H2  O   H1  H2  O   H1  H2  
O   H1  H2  O   H1  H2  O   H1  H2  O   H1  H2  O   H1  H2  O   H1  H2  O   H1  
H2  O   H1  H2  O   H1  H2  O   H1  H2  O   H1  H2  O   H1  H2  O   H1  H2  O   
H1  H2  O   H1  H2  O   H1  H2  O   H1  H2  O   H1  H2  O   H1  H2  O   H1  H2  
O   H1  H2  O   H1  H2  O   H1  H2  O   H1  H2  O   H1  H2  O   H1  H2  O   H1  
H2  O   H1  H2  O   H1  H2  O   H1  H2  O   H1  H2  O   H1  H2  O   H1  H2  O   
H1  H2  O   H1  H2  O   H1  H2  O   H1  H2  O   H1  H2  O   H1  H2  O   H1  H2  
O   H1  H2  O   H1  H2  O   H1  H2  O   H1  H2  O   H1  H2  O   H1  H2  O   H1  
H2  O   H1  H2  O   H1  H2  O   H1  H2  O   H1  H2  O   H1  H2  O   H1  H2  O   
H1  H2  O   H1  H2  O   H1  H2  O   H1  H2  O   H1  H2  O   H1  H2  O   H1  H2  
O   H1  H2  O   H1  H2  O   H1  H2  O   H1  H2  O   H1  H2  O   H1  H2  O   H1  
H2  O   H1  H2  O   H1  H2  O   H1  H2  O   H1  H2  O   H1  H2  O   H1  H2  O   
H1  H2  O   H1  H2  O   H1  H2  O   H1  H2  O   H1  H2  O   H1  H2  O   H1  H2  
O   H1  H2  O   H1  H2  O   H1  H2  O   H1  H2  O   H1  H2  O   H1  H2  O   H1  
H2  O   H1  H2  O   H1  H2  O   H1  H2  O   H1  H2  O   H1  H2  O   H1  H2  O   
H1  H2  O   H1  H2  O   H1  H2  O   H1  H2  O   H1  H2  O   H1  H2  O   H1  H2  
O   H1  H2  O   H1  H2  O   H1  H2  O   H1  H2  O   H1  H2  O   H1  H2  O   H1  
H2  O   H1  H2  O   H1  H2  O   H1  H2  O   H1  H2  O   H1  H2  O   H1  H2  O   
H1  H2  O   H1  H2  O   H1  H2  O   H1  H2  O   H1  H2  O   H1  H2  O   H1  H2  
O   H1  H2  O   H1  H2  O   H1  H2  O   H1  H2  O   H1  H2  O   H1  H2  O   H1  
H2  O   H1  H2  O   H1  H2  O   H1  H2  O   H1  H2  O   H1  H2  O   H1  H2  O   
H1  H2  O   H1  H2  O   H1  H2  O   H1  H2  O   H1  H2  O   H1  H2  O   H1  H2  
O   H1  H2  O   H1  H2  O   H1  H2  O   H1  H2  O   H1  H2  O   H1  H2  O   H1  
H2  O   H1  H2  O   H1  H2  O   H1  H2  O   H1  H2  O   H1  H2  O   H1  H2  O   
H1  H2  O   H1  H2  O   H1  H2  O   H1  H2  O   H1  H2  O   H1  H2  O   H1  H2  
O   H1  H2  O   H1  H2  O   H1  H2  O   H1  H2  O   H1  H2  O   H1  H2  O   H1  
H2  O   H1  H2  O   H1  H2  O   H1  H2  O   H1  H2  O   H1  H2  O   H1  H2  O   
H1  H2  O   H1  H2  O   H1  H2  O   H1  H2  O   H1  H2  O   H1  H2  O   H1  H2  
O   H1  H2  O   H1  H2  O   H1  H2  O   H1  H2  O   H1  H2  O   H1  H2  O   H1  
H2  O   H1  H2  O   H1  H2  O   H1  H2  O   H1  H2  O   H1  H2  O   H1  H2  O   
H1  H2  O   H1  H2  O   H1  H2  O   H1  H2  O   H1  H2  O   H1  H2  O   H1  H2  
O   H1  H2  O   H1  H2  O   H1  H2  O   H1  H2  O   H1  H2  O   H1  H2  O   H1  
H2  O   H1  H2  O   H1  H2  O   H1  H2  O   H1  H2  O   H1  H2  O   H1  H2  O   
H1  H2  O   H1  H2  O   H1  H2  O   H1  H2  O   H1  H2  O   H1  H2  O   H1  H2  
O   H1  H2  O   H1  H2  O   H1  H2  O   H1  H2  O   H1  H2  O   H1  H2  O   H1  
H2  O   H1  H2  O   H1  H2  O   H1  H2  O   H1  H2  O   H1  H2  O   H1  H2  O   
H1  H2  O   H1  H2  O   H1  H2  O   H1  H2  O   H1  H2  O   H1  H2  O   H1  H2  
O   H1  H2  O   H1  H2  O   H1  H2  O   H1  H2  O   H1  H2  O   H1  H2  O   H1  
H2  O   H1  H2  O   H1  H2  O   H1  H2  O   H1  H2  O   H1  H2  O   H1  H2  O   
H1  H2  O   H1  H2  O   H1  H2  O   H1  H2  O   H1  H2  O   H1  H2  O   H1  H2  
O   H1  H2  O   H1  H2  O   H1  H2  O   H1  H2  O   H1  H2  O   H1  H2  O   H1  
H2  O   H1  H2  O   H1  H2  O   H1  H2  O   H1  H2  O   H1  H2  O   H1  H2  O   
H1  H2  O   H1  H2  O   H1  H2  O   H1  H2  O   H1  H2  O   H1  H2  O   H1  H2  
O   H1  H2  O   H1  H2  O   H1  H2  O   H1  H2  O   H1  H2  O   H1  H2  O   H1  
H2  O   H1  H2  O   H1  H2  O   H1  H2  O   H1  H2  O   H1  H2  O   H1  H2  O   
H1  H2  O   H1  H2  O   H1  H2  O   H1  H2  O   H1  H2  O   H1  H2  O   H1  H2  
O   H1  H2  O   H1  H2  O   H1  H2  O   H1  H2  O   H1  H2  O   H1  H2  O   H1  
H2  O   H1  H2  O   H1  H2  O   H1  H2  O   H1  H2  O   H1  H2  O   H1  H2  O   
H1  H2  O   H1  H2  O   H1  H2  O   H1  H2  O   H1  H2  O   H1  H2  O   H1  H2  
O   H1  H2  O   H1  H2  O   H1  H2  O   H1  H2  O   H1  H2  O   H1  H2  O   H1  
H2  O   H1  H2  O   H1  H2  O   H1  H2  O   H1  H2  O   H1  H2  O   H1  H2  O   
H1  H2  O   H1  H2  O   H1  H2  O   H1  H2  O   H1  H2  O   H1  H2  O   H1  H2  
O   H1  H2  O   H1  H2  O   H1  H2  O   H1  H2  O   H1  H2  O   H1  H2  O   H1  
H2  O   H1  H2  O   H1  H2  O   H1  H2  O   H1  H2  O   H1  H2  O   H1  H2  O   
H1  H2  O   H1  H2  O   H1  H2  O   H1  H2  O   H1  H2  O   H1  H2  O   H1  H2  
O   H1  H2  O   H1  H2  O   H1  H2  O   H1  H2  O   H1  H2  O   H1  H2  O   H1  
H2  O   H1  H2  O   H1  H2  O   H1  H2  O   H1  H2  O   H1  H2  O   H1  H2  O   
H1  H2  O   H1  H2  O   H1  H2  O   H1  H2  O   H1  H2  O   H1  H2  O   H1  H2  
O   H1  H2  O   H1  H2  O   H1  H2  O   H1  H2  O   H1  H2  O   H1  H2  O   H1  
H2  O   H1  H2  O   H1  H2  O   H1  H2  O   H1  H2  O   H1  H2  O   H1  H2  O   
H1  H2  O   H1  H2  O   H1  H2  O   H1  H2  O   H1  H2  O   H1  H2  O   H1  H2  
O   H1  H2  O   H1  H2  O   H1  H2  O   H1  H2  O   H1  H2  O   H1  H2  O   H1  
H2  O   H1  H2  O   H1  H2  O   H1  H2  O   H1  H2  O   H1  H2  O   H1  H2  O   
H1  H2  O   H1  H2  O   H1  H2  O   H1  H2  O   H1  H2  O   H1  H2  O   H1  H2  
O   H1  H2  O   H1  H2  O   H1  H2  O   H1  H2  O   H1  H2  O   H1  H2  O   H1  
H2  O   H1  H2  O   H1  H2  O   H1  H2  O   H1  H2  O   H1  H2  O   H1  H2  O   
H1  H2  O   H1  H2  O   H1  H2  O   H1  H2  O   H1  H2  O   H1  H2  O   H1  H2  
O   H1  H2  O   H1  H2  O   H1  H2  O   H1  H2  O   H1  H2  O   H1  H2  O   H1  
H2  O   H1  H2  O   H1  H2  O   H1  H2  O   H1  H2  O   H1  H2  O   H1  H2  O   
H1  H2  O   H1  H2  O   H1  H2  O   H1  H2  O   H1  H2  O   H1  H2  O   H1  H2  
O   H1  H2  O   H1  H2  O   H1  H2  O   H1  H2  O   H1  H2  O   H1  H2  O   H1  
H2  O   H1  H2  O   H1  H2  O   H1  H2  O   H1  H2  O   H1  H2  O   H1  H2  O   
H1  H2  O   H1  H2  O   H1  H2  O   H1  H2  O   H1  H2  O   H1  H2  O   H1  H2  
O   H1  H2  O   H1  H2  O   H1  H2  O   H1  H2  O   H1  H2  O   H1  H2  O   H1  
H2  O   H1  H2  O   H1  H2  O   H1  H2  O   H1  H2  O   H1  H2  O   H1  H2  O   
H1  H2  O   H1  H2  O   H1  H2  O   H1  H2  O   H1  H2  O   H1  H2  O   H1  H2  
O   H1  H2  O   H1  H2  O   H1  H2  O   H1  H2  O   H1  H2  O   H1  H2  O   H1  
H2  O   H1  H2  O   H1  H2  O   H1  H2  O   H1  H2  O   H1  H2  O   H1  H2  O   
H1  H2  O   H1  H2  O   H1  H2  O   H1  H2  O   H1  H2  O   H1  H2  O   H1  H2  
O   H1  H2  O   H1  H2  O   H1  H2  O   H1  H2  O   H1  H2  O   H1  H2  O   H1  
H2  O   H1  H2  O   H1  H2  O   H1  H2  O   H1  H2  O   H1  H2  O   H1  H2  O   
H1  H2  O   H1  H2  O   H1  H2  O   H1  H2  O   H1  H2  O   H1  H2  O   H1  H2  
O   H1  H2  O   H1  H2  O   H1  H2  O   H1  H2  O   H1  H2  O   H1  H2  O   H1  
H2  O   H1  H2  O   H1  H2  O   H1  H2  O   H1  H2  O   H1  H2  O   H1  H2  O   
H1  H2  O   H1  H2  O   H1  H2  O   H1  H2  O   H1  H2  O   H1  H2  O   H1  H2  
O   H1  H2  O   H1  H2  O   H1  H2  O   H1  H2  O   H1  H2  O   H1  H2  O   H1  
H2  O   H1  H2  O   H1  H2  O   H1  H2  O   H1  H2  O   H1  H2  O   H1  H2  O   
H1  H2  O   H1  H2  O   H1  H2  O   H1  H2  O   H1  H2  O   H1  H2  O   H1  H2  
O   H1  H2  O   H1  H2  O   H1  H2  O   H1  H2  O   H1  H2  O   H1  H2  O   H1  
H2  O   H1  H2  O   H1  H2  O   H1  H2  O   H1  H2  O   H1  H2  O   H1  H2  O   
H1  H2  O   H1  H2  O   H1  H2  O   H1  H2  O   H1  H2  O   H1  H2  O   H1  H2  
O   H1  H2  O   H1  H2  O   H1  H2  O   H1  H2  O   H1  H2  O   H1  H2  O   H1  
H2  O   H1  H2  O   H1  H2  O   H1  H2  O   H1  H2  O   H1  H2  O   H1  H2  O   
H1  H2  O   H1  H2  O   H1  H2  O   H1  H2  O   H1  H2  O   H1  H2  O   H1  H2  
O   H1  H2  O   H1  H2  O   H1  H2  O   H1  H2  O   H1  H2  O   H1  H2  O   H1  
H2  O   H1  H2  O   H1  H2  O   H1  H2  O   H1  H2  O   H1  H2  O   H1  H2  O   
H1  H2  O   H1  H2  O   H1  H2  O   H1  H2  O   H1  H2  O   H1  H2  O   H1  H2  
O   H1  H2  O   H1  H2  O   H1  H2  O   H1  H2  O   H1  H2  O   H1  H2  O   H1  
H2  O   H1  H2  O   H1  H2  O   H1  H2  O   H1  H2  O   H1  H2  O   H1  H2  O   
H1  H2  O   H1  H2  O   H1  H2  O   H1  H2  O   H1  H2  O   H1  H2  O   H1  H2  
O   H1  H2  O   H1  H2  O   H1  H2  O   H1  H2  O   H1  H2  O   H1  H2  O   H1  
H2  O   H1  H2  O   H1  H2  O   H1  H2  O   H1  H2  O   H1  H2  O   H1  H2  O   
H1  H2  O   H1  H2  O   H1  H2  O   H1  H2  O   H1  H2  O   H1  H2  O   H1  H2  
O   H1  H2  O   H1  H2  O   H1  H2  O   H1  H2  O   H1  H2  O   H1  H2  O   H1  
H2  O   H1  H2  O   H1  H2  O   H1  H2  O   H1  H2  O   H1  H2  O   H1  H2  O   
H1  H2  O   H1  H2  O   H1  H2  O   H1  H2  O   H1  H2  O   H1  H2  O   H1  H2  
O   H1  H2  O   H1  H2  O   H1  H2  O   H1  H2  O   H1  H2  O   H1  H2  O   H1  
H2  O   H1  H2  O   H1  H2  O   H1  H2  O   H1  H2  O   H1  H2  O   H1  H2  O   
H1  H2  O   H1  H2  O   H1  H2  O   H1  H2  O   H1  H2  O   H1  H2  O   H1  H2  
O   H1  H2  O   H1  H2  O   H1  H2  O   H1  H2  O   H1  H2  O   H1  H2  O   H1  
H2  O   H1  H2  O   H1  H2  O   H1  H2  O   H1  H2  O   H1  H2  O   H1  H2  O   
H1  H2  O   H1  H2  O   H1  H2  O   H1  H2  O   H1  H2  O   H1  H2  O   H1  H2  
O   H1  H2  O   H1  H2  O   H1  H2  O   H1  H2  O   H1  H2  O   H1  H2  O   H1  
H2  O   H1  H2  O   H1  H2  O   H1  H2  O   H1  H2  O   H1  H2  O   H1  H2  O   
H1  H2  O   H1  H2  O   H1  H2  O   H1  H2  O   H1  H2  O   H1  H2  O   H1  H2  
O   H1  H2  O   H1  H2  O   H1  H2  O   H1  H2  O   H1  H2  O   H1  H2  O   H1  
H2  O   H1  H2  O   H1  H2  O   H1  H2  O   H1  H2  O   H1  H2  O   H1  H2  O   
H1  H2  O   H1  H2  O   H1  H2  O   H1  H2  O   H1  H2  O   H1  H2  O   H1  H2  
O   H1  H2  O   H1  H2  O   H1  H2  O   H1  H2  O   H1  H2  O   H1  H2  O   H1  
H2  O   H1  H2  O   H1  H2  O   H1  H2  O   H1  H2  O   H1  H2  O   H1  H2  O   
H1  H2  O   H1  H2  O   H1  H2  O   H1  H2  O   H1  H2  O   H1  H2  O   H1  H2  
O   H1  H2  O   H1  H2  O   H1  H2  O   H1  H2  O   H1  H2  O   H1  H2  O   H1  
H2  O   H1  H2  O   H1  H2  O   H1  H2  O   H1  H2  O   H1  H2  O   H1  H2  O   
H1  H2  O   H1  H2  O   H1  H2  O   H1  H2  O   H1  H2  O   H1  H2  O   H1  H2  
O   H1  H2  O   H1  H2  O   H1  H2  O   H1  H2  O   H1  H2  O   H1  H2  O   H1  
H2  O   H1  H2  O   H1  H2  O   H1  H2  O   H1  H2  O   H1  H2  O   H1  H2  O   
H1  H2  O   H1  H2  O   H1  H2  O   H1  H2  O   H1  H2  O   H1  H2  O   H1  H2  
O   H1  H2  O   H1  H2  O   H1  H2  O   H1  H2  O   H1  H2  O   H1  H2  O   H1  
H2  O   H1  H2  O   H1  H2  O   H1  H2  O   H1  H2  O   H1  H2  O   H1  H2  O   
H1  H2  O   H1  H2  O   H1  H2  O   H1  H2  O   H1  H2  O   H1  H2  O   H1  H2  
O   H1  H2  O   H1  H2  O   H1  H2  O   H1  H2  O   H1  H2  O   H1  H2  O   H1  
H2  O   H1  H2  O   H1  H2  O   H1  H2  O   H1  H2  O   H1  H2  O   H1  H2  O   
H1  H2  O   H1  H2  O   H1  H2  O   H1  H2  O   H1  H2  O   H1  H2  O   H1  H2  
O   H1  H2  O   H1  H2  O   H1  H2  O   H1  H2  O   H1  H2  O   H1  H2  O   H1  
H2  O   H1  H2  O   H1  H2  O   H1  H2  O   H1  H2  O   H1  H2  O   H1  H2  O   
H1  H2  O   H1  H2  O   H1  H2  O   H1  H2  O   H1  H2  O   H1  H2  O   H1  H2  
O   H1  H2  O   H1  H2  O   H1  H2  O   H1  H2  O   H1  H2  O   H1  H2  O   H1  
H2  O   H1  H2  O   H1  H2  O   H1  H2  O   H1  H2  O   H1  H2  O   H1  H2  O   
H1  H2  O   H1  H2  O   H1  H2  O   H1  H2  O   H1  H2  O   H1  H2  O   H1  H2  
O   H1  H2  O   H1  H2  O   H1  H2  O   H1  H2  O   H1  H2  O   H1  H2  O   H1  
H2  O   H1  H2  O   H1  H2  O   H1  H2  O   H1  H2  O   H1  H2  O   H1  H2  O   
H1  H2  O   H1  H2  O   H1  H2  O   H1  H2  O   H1  H2  O   H1  H2  O   H1  H2  
O   H1  H2  O   H1  H2  O   H1  H2  O   H1  H2  O   H1  H2  O   H1  H2  O   H1  
H2  O   H1  H2  O   H1  H2  O   H1  H2  O   H1  H2  O   H1  H2  O   H1  H2  O   
H1  H2  O   H1  H2  O   H1  H2  O   H1  H2  O   H1  H2  O   H1  H2  O   H1  H2  
O   H1  H2  O   H1  H2  O   H1  H2  O   H1  H2  O   H1  H2  O   H1  H2  O   H1  
H2  O   H1  H2  O   H1  H2  O   H1  H2  O   H1  H2  O   H1  H2  O   H1  H2  O   
H1  H2  O   H1  H2  O   H1  H2  O   H1  H2  O   H1  H2  O   H1  H2  O   H1  H2  
O   H1  H2  O   H1  H2  O   H1  H2  O   H1  H2  O   H1  H2  O   H1  H2  O   H1  
H2  O   H1  H2  O   H1  H2  O   H1  H2  O   H1  H2  O   H1  H2  O   H1  H2  O   
H1  H2  O   H1  H2  O   H1  H2  O   H1  H2  O   H1  H2  O   H1  H2  O   H1  H2  
O   H1  H2  O   H1  H2  O   H1  H2  O   H1  H2  O   H1  H2  O   H1  H2  O   H1  
H2  O   H1  H2  O   H1  H2  O   H1  H2  O   H1  H2  O   H1  H2  O   H1  H2  O   
H1  H2  O   H1  H2  O   H1  H2  O   H1  H2  O   H1  H2  O   H1  H2  O   H1  H2  
O   H1  H2  O   H1  H2  O   H1  H2  O   H1  H2  O   H1  H2  O   H1  H2  O   H1  
H2  O   H1  H2  O   H1  H2  O   H1  H2  O   H1  H2  O   H1  H2  O   H1  H2  O   
H1  H2  O   H1  H2  O   H1  H2  O   H1  H2  O   H1  H2  O   H1  H2  O   H1  H2  
O   H1  H2  O   H1  H2  O   H1  H2  O   H1  H2  O   H1  H2  O   H1  H2  O   H1  
H2  O   H1  H2  O   H1  H2  O   H1  H2  O   H1  H2  O   H1  H2  O   H1  H2  O   
H1  H2  O   H1  H2  O   H1  H2  O   H1  H2  O   H1  H2  O   H1  H2  O   H1  H2  
O   H1  H2  O   H1  H2  O   H1  H2  O   H1  H2  O   H1  H2  O   H1  H2  O   H1  
H2  O   H1  H2  O   H1  H2  O   H1  H2  O   H1  H2  O   H1  H2  O   H1  H2  O   
H1  H2  O   H1  H2  O   H1  H2  O   H1  H2  O   H1  H2  O   H1  H2  O   H1  H2  
O   H1  H2  O   H1  H2  O   H1  H2  O   H1  H2  O   H1  H2  O   H1  H2  O   H1  
H2  O   H1  H2  O   H1  H2  O   H1  H2  O   H1  H2  O   H1  H2  O   H1  H2  O   
H1  H2  O   H1  H2  O   H1  H2  O   H1  H2  O   H1  H2  O   H1  H2  O   H1  H2  
O   H1  H2  O   H1  H2  O   H1  H2  O   H1  H2  O   H1  H2  O   H1  H2  O   H1  
H2  O   H1  H2  O   H1  H2  O   H1  H2  O   H1  H2  O   H1  H2  O   H1  H2  O   
H1  H2  O   H1  H2  O   H1  H2  O   H1  H2  O   H1  H2  O   H1  H2  O   H1  H2  
O   H1  H2  O   H1  H2  O   H1  H2  O   H1  H2  O   H1  H2  O   H1  H2  O   H1  
H2  O   H1  H2  O   H1  H2  O   H1  H2  O   H1  H2  O   H1  H2  O   H1  H2  O   
H1  H2  O   H1  H2  O   H1  H2  O   H1  H2  O   H1  H2  O   H1  H2  O   H1  H2  
O   H1  H2  O   H1  H2  O   H1  H2  O   H1  H2  O   H1  H2  O   H1  H2  O   H1  
H2  O   H1  H2  O   H1  H2  O   H1  H2  O   H1  H2  O   H1  H2  O   H1  H2  O   
H1  H2  O   H1  H2  O   H1  H2  O   H1  H2  O   H1  H2  O   H1  H2  O   H1  H2  
O   H1  H2  O   H1  H2  O   H1  H2  O   H1  H2  O   H1  H2  O   H1  H2  O   H1  
H2  O   H1  H2  O   H1  H2  O   H1  H2  O   H1  H2  O   H1  H2  O   H1  H2  O   
H1  H2  O   H1  H2  O   H1  H2  O   H1  H2  O   H1  H2  O   H1  H2  O   H1  H2  
O   H1  H2  O   H1  H2  O   H1  H2  O   H1  H2  O   H1  H2  O   H1  H2  O   H1  
H2  O   H1  H2  O   H1  H2  O   H1  H2  O   H1  H2  O   H1  H2  O   H1  H2  O   
H1  H2  O   H1  H2  O   H1  H2  O   H1  H2  O   H1  H2  O   H1  H2  O   H1  H2  
O   H1  H2  O   H1  H2  O   H1  H2  O   H1  H2  O   H1  H2  O   H1  H2  O   H1  
H2  O   H1  H2  O   H1  H2  O   H1  H2  O   H1  H2  O   H1  H2  O   H1  H2  O   
H1  H2  O   H1  H2  O   H1  H2  O   H1  H2  O   H1  H2  O   H1  H2  O   H1  H2  
O   H1  H2  O   H1  H2  O   H1  H2  O   H1  H2  O   H1  H2  O   H1  H2  O   H1  
H2  O   H1  H2  O   H1  H2  O   H1  H2  O   H1  H2  O   H1  H2  O   H1  H2  O   
H1  H2  O   H1  H2  O   H1  H2  O   H1  H2  O   H1  H2  O   H1  H2  O   H1  H2  
O   H1  H2  O   H1  H2  O   H1  H2  O   H1  H2  O   H1  H2  O   H1  H2  O   H1  
H2  O   H1  H2  O   H1  H2  O   H1  H2  O   H1  H2  O   H1  H2  O   H1  H2  O   
H1  H2  O   H1  H2  O   H1  H2  O   H1  H2  O   H1  H2  O   H1  H2  O   H1  H2  
O   H1  H2  O   H1  H2  O   H1  H2  O   H1  H2  O   H1  H2  O   H1  H2  O   H1  
H2  O   H1  H2  O   H1  H2  O   H1  H2  O   H1  H2  O   H1  H2  O   H1  H2  O   
H1  H2  O   H1  H2  O   H1  H2  O   H1  H2  O   H1  H2  O   H1  H2  O   H1  H2  
O   H1  H2  O   H1  H2  O   H1  H2  O   H1  H2  O   H1  H2  O   H1  H2  O   H1  
H2  O   H1  H2  O   H1  H2  O   H1  H2  O   H1  H2  O   H1  H2  O   H1  H2  O   
H1  H2  O   H1  H2  O   H1  H2  O   H1  H2  O   H1  H2  O   H1  H2  O   H1  H2  
O   H1  H2  O   H1  H2  O   H1  H2  O   H1  H2  O   H1  H2  O   H1  H2  O   H1  
H2  O   H1  H2  O   H1  H2  O   H1  H2  O   H1  H2  O   H1  H2  O   H1  H2  O   
H1  H2  O   H1  H2  O   H1  H2  O   H1  H2  O   H1  H2  O   H1  H2  O   H1  H2  
O   H1  H2  O   H1  H2  O   H1  H2  O   H1  H2  O   H1  H2  O   H1  H2  O   H1  
H2  O   H1  H2  O   H1  H2  O   H1  H2  O   H1  H2  O   H1  H2  O   H1  H2  O   
H1  H2  O   H1  H2  O   H1  H2  O   H1  H2  O   H1  H2  O   H1  H2  O   H1  H2  
O   H1  H2  O   H1  H2  O   H1  H2  O   H1  H2  O   H1  H2  O   H1  H2  O   H1  
H2  O   H1  H2  O   H1  H2  O   H1  H2  O   H1  H2  O   H1  H2  O   H1  H2  O   
H1  H2  O   H1  H2  O   H1  H2  O   H1  H2  O   H1  H2  O   H1  H2  O   H1  H2  
O   H1  H2  O   H1  H2  O   H1  H2  O   H1  H2  O   H1  H2  O   H1  H2  O   H1  
H2  O   H1  H2  O   H1  H2  O   H1  H2  O   H1  H2  O   H1  H2  O   H1  H2  O   
H1  H2  O   H1  H2  O   H1  H2  O   H1  H2  O   H1  H2  O   H1  H2  O   H1  H2  
O   H1  H2  O   H1  H2  O   H1  H2  O   H1  H2  O   H1  H2  O   H1  H2  O   H1  
H2  O   H1  H2  O   H1  H2  O   H1  H2  O   H1  H2  O   H1  H2  O   H1  H2  O   
H1  H2  O   H1  H2  O   H1  H2  O   H1  H2  O   H1  H2  O   H1  H2  O   H1  H2  
O   H1  H2  O   H1  H2  O   H1  H2  O   H1  H2  O   H1  H2  O   H1  H2  O   H1  
H2  O   H1  H2  O   H1  H2  O   H1  H2  O   H1  H2  O   H1  H2  O   H1  H2  O   
H1  H2  O   H1  H2  O   H1  H2  O   H1  H2  O   H1  H2  O   H1  H2  O   H1  H2  
O   H1  H2  O   H1  H2  O   H1  H2  O   H1  H2  O   H1  H2  O   H1  H2  O   H1  
H2  O   H1  H2  O   H1  H2  O   H1  H2  O   H1  H2  O   H1  H2  O   H1  H2  O   
H1  H2  O   H1  H2  O   H1  H2  O   H1  H2  O   H1  H2  O   H1  H2  O   H1  H2  
O   H1  H2  O   H1  H2  O   H1  H2  O   H1  H2  O   H1  H2  O   H1  H2  O   H1  
H2  O   H1  H2  O   H1  H2  O   H1  H2  O   H1  H2  O   H1  H2  O   H1  H2  O   
H1  H2  O   H1  H2  O   H1  H2  O   H1  H2  O   H1  H2  O   H1  H2  O   H1  H2  
O   H1  H2  O   H1  H2  O   H1  H2  O   H1  H2  O   H1  H2  O   H1  H2  O   H1  
H2  O   H1  H2  O   H1  H2  O   H1  H2  O   H1  H2  O   H1  H2  O   H1  H2  O   
H1  H2  O   H1  H2  O   H1  H2  O   H1  H2  O   H1  H2  O   H1  H2  O   H1  H2  
O   H1  H2  O   H1  H2  O   H1  H2  O   H1  H2  O   H1  H2  O   H1  H2  O   H1  
H2  O   H1  H2  O   H1  H2  O   H1  H2  O   H1  H2  O   H1  H2  O   H1  H2  O   
H1  H2  O   H1  H2  O   H1  H2  O   H1  H2  O   H1  H2  O   H1  H2  O   H1  H2  
O   H1  H2  O   H1  H2  O   H1  H2  O   H1  H2  O   H1  H2  O   H1  H2  O   H1  
H2  O   H1  H2  O   H1  H2  O   H1  H2  O   H1  H2  O   H1  H2  O   H1  H2  O   
H1  H2  O   H1  H2  O   H1  H2  O   H1  H2  O   H1  H2  O   H1  H2  O   H1  H2  
O   H1  H2  O   H1  H2  O   H1  H2  O   H1  H2  O   H1  H2  O   H1  H2  O   H1  
H2  O   H1  H2  O   H1  H2  O   H1  H2  O   H1  H2  O   H1  H2  O   H1  H2  O   
H1  H2  O   H1  H2  O   H1  H2  O   H1  H2  O   H1  H2  O   H1  H2  O   H1  H2  
O   H1  H2  O   H1  H2  O   H1  H2  O   H1  H2  O   H1  H2  O   H1  H2  O   H1  
H2  O   H1  H2  O   H1  H2  O   H1  H2  O   H1  H2  O   H1  H2  O   H1  H2  O   
H1  H2  O   H1  H2  O   H1  H2  O   H1  H2  O   H1  H2  O   H1  H2  O   H1  H2  
O   H1  H2  O   H1  H2  O   H1  H2  O   H1  H2  O   H1  H2  O   H1  H2  O   H1  
H2  O   H1  H2  O   H1  H2  O   H1  H2  O   H1  H2  O   H1  H2  O   H1  H2  O   
H1  H2  O   H1  H2  O   H1  H2  O   H1  H2  O   H1  H2  O   H1  H2  O   H1  H2  
O   H1  H2  O   H1  H2  O   H1  H2  O   H1  H2  O   H1  H2  O   H1  H2  O   H1  
H2  O   H1  H2  O   H1  H2  O   H1  H2  O   H1  H2  O   H1  H2  O   H1  H2  O   
H1  H2  O   H1  H2  O   H1  H2  O   H1  H2  O   H1  H2  O   H1  H2  O   H1  H2  
O   H1  H2  O   H1  H2  O   H1  H2  O   H1  H2  O   H1  H2  O   H1  H2  O   H1  
H2  O   H1  H2  O   H1  H2  O   H1  H2  O   H1  H2  O   H1  H2  O   H1  H2  O   
H1  H2  O   H1  H2  O   H1  H2  O   H1  H2  O   H1  H2  O   H1  H2  O   H1  H2  
O   H1  H2  O   H1  H2  O   H1  H2  O   H1  H2  O   H1  H2  O   H1  H2  O   H1  
H2  O   H1  H2  O   H1  H2  O   H1  H2  O   H1  H2  O   H1  H2  O   H1  H2  O   
H1  H2  O   H1  H2  O   H1  H2  O   H1  H2  O   H1  H2  O   H1  H2  O   H1  H2  
O   H1  H2  O   H1  H2  O   H1  H2  O   H1  H2  O   H1  H2  O   H1  H2  O   H1  
H2  O   H1  H2  O   H1  H2  O   H1  H2  O   H1  H2  O   H1  H2  O   H1  H2  O   
H1  H2  O   H1  H2  O   H1  H2  O   H1  H2  O   H1  H2  O   H1  H2  O   H1  H2  
O   H1  H2  O   H1  H2  O   H1  H2  O   H1  H2  O   H1  H2  O   H1  H2  O   H1  
H2  O   H1  H2  O   H1  H2  O   H1  H2  O   H1  H2  O   H1  H2  O   H1  H2  O   
H1  H2  O   H1  H2  O   H1  H2  O   H1  H2  O   H1  H2  O   H1  H2  O   H1  H2  
O   H1  H2  O   H1  H2  O   H1  H2  O   H1  H2  O   H1  H2  O   H1  H2  O   H1  
H2  O   H1  H2  O   H1  H2  O   H1  H2  O   H1  H2  O   H1  H2  O   H1  H2  O   
H1  H2  O   H1  H2  O   H1  H2  O   H1  H2  O   H1  H2  O   H1  H2  O   H1  H2  
O   H1  H2  O   H1  H2  O   H1  H2  O   H1  H2  O   H1  H2  O   H1  H2  O   H1  
H2  O   H1  H2  O   H1  H2  O   H1  H2  O   H1  H2  O   H1  H2  O   H1  H2  O   
H1  H2  O   H1  H2  O   H1  H2  O   H1  H2  O   H1  H2  O   H1  H2  O   H1  H2  
O   H1  H2  O   H1  H2  O   H1  H2  O   H1  H2  O   H1  H2  O   H1  H2  O   H1  
H2  O   H1  H2  O   H1  H2  O   H1  H2  O   H1  H2  O   H1  H2  O   H1  H2  O   
H1  H2  O   H1  H2  O   H1  H2  O   H1  H2  O   H1  H2  O   H1  H2  O   H1  H2  
O   H1  H2  O   H1  H2  O   H1  H2  O   H1  H2  O   H1  H2  O   H1  H2  O   H1  
H2  O   H1  H2  O   H1  H2  O   H1  H2  O   H1  H2  O   H1  H2  O   H1  H2  O   
H1  H2  O   H1  H2  O   H1  H2  O   H1  H2  O   H1  H2  O   H1  H2  O   H1  H2  
O   H1  H2  O   H1  H2  O   H1  H2  O   H1  H2  O   H1  H2  O   H1  H2  O   H1  
H2  O   H1  H2  O   H1  H2  O   H1  H2  O   H1  H2  O   H1  H2  O   H1  H2  O   
H1  H2  O   H1  H2  O   H1  H2  O   H1  H2  O   H1  H2  O   H1  H2  O   H1  H2  
O   H1  H2  O   H1  H2  O   H1  H2  O   H1  H2  O   H1  H2  O   H1  H2  O   H1  
H2  O   H1  H2  O   H1  H2  O   H1  H2  O   H1  H2  O   H1  H2  O   H1  H2  O   
H1  H2  O   H1  H2  O   H1  H2  O   H1  H2  O   H1  H2  O   H1  H2  O   H1  H2  
O   H1  H2  O   H1  H2  O   H1  H2  O   H1  H2  O   H1  H2  O   H1  H2  O   H1  
H2  O   H1  H2  O   H1  H2  O   H1  H2  O   H1  H2  O   H1  H2  O   H1  H2  O   
H1  H2  O   H1  H2  O   H1  H2  O   H1  H2  O   H1  H2  O   H1  H2  O   H1  H2  
O   H1  H2  O   H1  H2  O   H1  H2  O   H1  H2  O   H1  H2  O   H1  H2  O   H1  
H2  O   H1  H2  O   H1  H2  O   H1  H2  O   H1  H2  O   H1  H2  O   H1  H2  O   
H1  H2  O   H1  H2  O   H1  H2  O   H1  H2  O   H1  H2  O   H1  H2  O   H1  H2  
O   H1  H2  O   H1  H2  O   H1  H2  O   H1  H2  O   H1  H2  O   H1  H2  O   H1  
H2  O   H1  H2  O   H1  H2  O   H1  H2  O   H1  H2  O   H1  H2  O   H1  H2  O   
H1  H2  O   H1  H2  O   H1  H2  O   H1  H2  O   H1  H2  O   H1  H2  O   H1  H2  
O   H1  H2  O   H1  H2  O   H1  H2  O   H1  H2  O   H1  H2  O   H1  H2  O   H1  
H2  O   H1  H2  O   H1  H2  O   H1  H2  O   H1  H2  O   H1  H2  O   H1  H2  O   
H1  H2  O   H1  H2  O   H1  H2  O   H1  H2  O   H1  H2  O   H1  H2  O   H1  H2  
O   H1  H2  O   H1  H2  O   H1  H2  O   H1  H2  O   H1  H2  O   H1  H2  O   H1  
H2  O   H1  H2  O   H1  H2  O   H1  H2  O   H1  H2  O   H1  H2  O   H1  H2  O   
H1  H2  O   H1  H2  O   H1  H2  O   H1  H2  O   H1  H2  O   H1  H2  O   H1  H2  
O   H1  H2  O   H1  H2  O   H1  H2  O   H1  H2  O   H1  H2  O   H1  H2  O   H1  
H2  O   H1  H2  O   H1  H2  O   H1  H2  O   H1  H2  O   H1  H2  O   H1  H2  O   
H1  H2  O   H1  H2  O   H1  H2  O   H1  H2  O   H1  H2  O   H1  H2  O   H1  H2  
O   H1  H2  O   H1  H2  O   H1  H2  O   H1  H2  O   H1  H2  O   H1  H2  O   H1  
H2  O   H1  H2  O   H1  H2  O   H1  H2  O   H1  H2  O   H1  H2  O   H1  H2  O   
H1  H2  O   H1  H2  O   H1  H2  O   H1  H2  O   H1  H2  O   H1  H2  O   H1  H2  
O   H1  H2  O   H1  H2  O   H1  H2  O   H1  H2  O   H1  H2  O   H1  H2  O   H1  
H2  O   H1  H2  O   H1  H2  O   H1  H2  O   H1  H2  O   H1  H2  O   H1  H2  O   
H1  H2  O   H1  H2  O   H1  H2  O   H1  H2  O   H1  H2  O   H1  H2  O   H1  H2  
O   H1  H2  O   H1  H2  O   H1  H2  O   H1  H2  O   H1  H2  O   H1  H2  O   H1  
H2  O   H1  H2  O   H1  H2  O   H1  H2  O   H1  H2  O   H1  H2  O   H1  H2  O   
H1  H2  O   H1  H2  O   H1  H2  O   H1  H2  O   H1  H2  O   H1  H2  O   H1  H2  
O   H1  H2  O   H1  H2  O   H1  H2  O   H1  H2  O   H1  H2  O   H1  H2  O   H1  
H2  O   H1  H2  O   H1  H2  O   H1  H2  O   H1  H2  O   H1  H2  O   H1  H2  O   
H1  H2  O   H1  H2  O   H1  H2  O   H1  H2  O   H1  H2  O   H1  H2  O   H1  H2  
O   H1  H2  O   H1  H2  O   H1  H2  O   H1  H2  O   H1  H2  O   H1  H2  O   H1  
H2  O   H1  H2  O   H1  H2  O   H1  H2  O   H1  H2  O   H1  H2  O   H1  H2  O   
H1  H2  O   H1  H2  O   H1  H2  O   H1  H2  O   H1  H2  O   H1  H2  O   H1  H2  
O   H1  H2  O   H1  H2  O   H1  H2  O   H1  H2  O   H1  H2  O   H1  H2  O   H1  
H2  O   H1  H2  O   H1  H2  O   H1  H2  O   H1  H2  O   H1  H2  O   H1  H2  O   
H1  H2  O   H1  H2  O   H1  H2  O   H1  H2  O   H1  H2  O   H1  H2  O   H1  H2  
O   H1  H2  O   H1  H2  O   H1  H2  O   H1  H2  O   H1  H2  O   H1  H2  O   H1  
H2  O   H1  H2  O   H1  H2  O   H1  H2  O   H1  H2  O   H1  H2  O   H1  H2  O   
H1  H2  O   H1  H2  O   H1  H2  O   H1  H2  O   H1  H2  O   H1  H2  O   H1  H2  
O   H1  H2  O   H1  H2  O   H1  H2  O   H1  H2  O   H1  H2  O   H1  H2  O   H1  
H2  O   H1  H2  O   H1  H2  O   H1  H2  O   H1  H2  O   H1  H2  O   H1  H2  O   
H1  H2  O   H1  H2  O   H1  H2  O   H1  H2  O   H1  H2  O   H1  H2  O   H1  H2  
O   H1  H2  O   H1  H2  O   H1  H2  O   H1  H2  O   H1  H2  O   H1  H2  O   H1  
H2  O   H1  H2  O   H1  H2  O   H1  H2  O   H1  H2  O   H1  H2  O   H1  H2  O   
H1  H2  O   H1  H2  O   H1  H2  O   H1  H2  O   H1  H2  O   H1  H2  O   H1  H2  
O   H1  H2  O   H1  H2  O   H1  H2  O   H1  H2  O   H1  H2  O   H1  H2  O   H1  
H2  O   H1  H2  O   H1  H2  O   H1  H2  O   H1  H2  O   H1  H2  O   H1  H2  O   
H1  H2  O   H1  H2  O   H1  H2  O   H1  H2  O   H1  H2  O   H1  H2  O   H1  H2  
O   H1  H2  O   H1  H2  O   H1  H2  O   H1  H2  O   H1  H2  O   H1  H2  O   H1  
H2  O   H1  H2  O   H1  H2  O   H1  H2  O   H1  H2  O   H1  H2  O   H1  H2  O   
H1  H2  O   H1  H2  O   H1  H2  O   H1  H2  O   H1  H2  O   H1  H2  O   H1  H2  
O   H1  H2  O   H1  H2  O   H1  H2  O   H1  H2  O   H1  H2  O   H1  H2  O   H1  
H2  O   H1  H2  O   H1  H2  O   H1  H2  O   H1  H2  O   H1  H2  O   H1  H2  O   
H1  H2  O   H1  H2  O   H1  H2  O   H1  H2  O   H1  H2  O   H1  H2  O   H1  H2  
O   H1  H2  O   H1  H2  O   H1  H2  O   H1  H2  O   H1  H2  O   H1  H2  O   H1  
H2  O   H1  H2  O   H1  H2  O   H1  H2  O   H1  H2  O   H1  H2  O   H1  H2  O   
H1  H2  O   H1  H2  O   H1  H2  O   H1  H2  O   H1  H2  O   H1  H2  O   H1  H2  
O   H1  H2  O   H1  H2  O   H1  H2  O   H1  H2  O   H1  H2  O   H1  H2  O   H1  
H2  O   H1  H2  O   H1  H2  O   H1  H2  O   H1  H2  O   H1  H2  O   H1  H2  O   
H1  H2  O   H1  H2  O   H1  H2  O   H1  H2  O   H1  H2  O   H1  H2  O   H1  H2  
O   H1  H2  O   H1  H2  O   H1  H2  O   H1  H2  O   H1  H2  O   H1  H2  O   H1  
H2  O   H1  H2  O   H1  H2  O   H1  H2  O   H1  H2  O   H1  H2  O   H1  H2  O   
H1  H2  O   H1  H2  O   H1  H2  O   H1  H2  O   H1  H2  O   H1  H2  O   H1  H2  
O   H1  H2  O   H1  H2  O   H1  H2  O   H1  H2  O   H1  H2  O   H1  H2  O   H1  
H2  O   H1  H2  O   H1  H2  O   H1  H2  O   H1  H2  O   H1  H2  O   H1  H2  O   
H1  H2  O   H1  H2  O   H1  H2  O   H1  H2  O   H1  H2  O   H1  H2  O   H1  H2  
O   H1  H2  O   H1  H2  O   H1  H2  O   H1  H2  O   H1  H2  O   H1  H2  O   H1  
H2  O   H1  H2  O   H1  H2  O   H1  H2  O   H1  H2  O   H1  H2  O   H1  H2  O   
H1  H2  O   H1  H2  O   H1  H2  O   H1  H2  O   H1  H2  O   H1  H2  O   H1  H2  
O   H1  H2  O   H1  H2  O   H1  H2  O   H1  H2  O   H1  H2  O   H1  H2  O   H1  
H2  O   H1  H2  O   H1  H2  O   H1  H2  O   H1  H2  O   H1  H2  O   H1  H2  O   
H1  H2  O   H1  H2  O   H1  H2  O   H1  H2  O   H1  H2  O   H1  H2  O   H1  H2  
O   H1  H2  O   H1  H2  O   H1  H2  O   H1  H2  O   H1  H2  O   H1  H2  O   H1  
H2  O   H1  H2  O   H1  H2  O   H1  H2  O   H1  H2  O   H1  H2  O   H1  H2  O   
H1  H2  O   H1  H2  O   H1  H2  O   H1  H2  O   H1  H2  O   H1  H2  O   H1  H2  
O   H1  H2  O   H1  H2  O   H1  H2  O   H1  H2  O   H1  H2  O   H1  H2  O   H1  
H2  O   H1  H2  O   H1  H2  O   H1  H2  O   H1  H2  O   H1  H2  O   H1  H2  O   
H1  H2  O   H1  H2  O   H1  H2  O   H1  H2  O   H1  H2  O   H1  H2  O   H1  H2  
O   H1  H2  O   H1  H2  O   H1  H2  O   H1  H2  O   H1  H2  O   H1  H2  O   H1  
H2  O   H1  H2  O   H1  H2  O   H1  H2  O   H1  H2  O   H1  H2  O   H1  H2  O   
H1  H2  O   H1  H2  O   H1  H2  O   H1  H2  O   H1  H2  O   H1  H2  O   H1  H2  
O   H1  H2  O   H1  H2  O   H1  H2  O   H1  H2  O   H1  H2  O   H1  H2  O   H1  
H2  O   H1  H2  O   H1  H2  O   H1  H2  O   H1  H2  O   H1  H2  O   H1  H2  O   
H1  H2  O   H1  H2  O   H1  H2  O   H1  H2  O   H1  H2  O   H1  H2  O   H1  H2  
O   H1  H2  O   H1  H2  O   H1  H2  O   H1  H2  O   H1  H2  O   H1  H2  O   H1  
H2  O   H1  H2  O   H1  H2  O   H1  H2  O   H1  H2  O   H1  H2  O   H1  H2  O   
H1  H2  O   H1  H2  O   H1  H2  O   H1  H2  O   H1  H2  O   H1  H2  O   H1  H2  
O   H1  H2  O   H1  H2  O   H1  H2  O   H1  H2  O   H1  H2  O   H1  H2  O   H1  
H2  O   H1  H2  O   H1  H2  O   H1  H2  O   H1  H2  O   H1  H2  O   H1  H2  O   
H1  H2  O   H1  H2  O   H1  H2  O   H1  H2  O   H1  H2  O   H1  H2  O   H1  H2  
O   H1  H2  O   H1  H2  O   H1  H2  O   H1  H2  O   H1  H2  O   H1  H2  O   H1  
H2  O   H1  H2  O   H1  H2  O   H1  H2  O   H1  H2  O   H1  H2  O   H1  H2  O   
H1  H2  O   H1  H2  O   H1  H2  O   H1  H2  O   H1  H2  O   H1  H2  O   H1  H2  
O   H1  H2  O   H1  H2  O   H1  H2  O   H1  H2  O   H1  H2  O   H1  H2  O   H1  
H2  O   H1  H2  O   H1  H2  O   H1  H2  O   H1  H2  O   H1  H2  O   H1  H2  O   
H1  H2  O   H1  H2  O   H1  H2  O   H1  H2  O   H1  H2  O   H1  H2  O   H1  H2  
O   H1  H2  O   H1  H2  O   H1  H2  O   H1  H2  O   H1  H2  O   H1  H2  O   H1  
H2  O   H1  H2  O   H1  H2  O   H1  H2  O   H1  H2  O   H1  H2  O   H1  H2  O   
H1  H2  O   H1  H2  O   H1  H2  O   H1  H2  O   H1  H2  O   H1  H2  O   H1  H2  
O   H1  H2  O   H1  H2  O   H1  H2  O   H1  H2  O   H1  H2  O   H1  H2  O   H1  
H2  O   H1  H2  O   H1  H2  O   H1  H2  O   H1  H2  O   H1  H2  O   H1  H2  O   
H1  H2  O   H1  H2  O   H1  H2  O   H1  H2  O   H1  H2  O   H1  H2  O   H1  H2  
O   H1  H2  O   H1  H2  O   H1  H2  O   H1  H2  O   H1  H2  O   H1  H2  O   H1  
H2  O   H1  H2  O   H1  H2  O   H1  H2  O   H1  H2  O   H1  H2  O   H1  H2  O   
H1  H2  O   H1  H2  O   H1  H2  O   H1  H2  O   H1  H2  O   H1  H2  O   H1  H2  
O   H1  H2  O   H1  H2  O   H1  H2  O   H1  H2  O   H1  H2  O   H1  H2  O   H1  
H2  O   H1  H2  O   H1  H2  O   H1  H2  O   H1  H2  O   H1  H2  O   H1  H2  O   
H1  H2  O   H1  H2  O   H1  H2  O   H1  H2  O   H1  H2  O   H1  H2  O   H1  H2  
O   H1  H2  O   H1  H2  O   H1  H2  O   H1  H2  O   H1  H2  O   H1  H2  O   H1  
H2  O   H1  H2  O   H1  H2  O   H1  H2  O   H1  H2  O   H1  H2  O   H1  H2  O   
H1  H2  O   H1  H2  O   H1  H2  O   H1  H2  O   H1  H2  O   H1  H2  O   H1  H2  
O   H1  H2  O   H1  H2  O   H1  H2  O   H1  H2  O   H1  H2  O   H1  H2  O   H1  
H2  O   H1  H2  O   H1  H2  O   H1  H2  O   H1  H2  O   H1  H2  O   H1  H2  O   
H1  H2  O   H1  H2  O   H1  H2  O   H1  H2  O   H1  H2  O   H1  H2  O   H1  H2  
O   H1  H2  O   H1  H2  O   H1  H2  O   H1  H2  O   H1  H2  O   H1  H2  O   H1  
H2  O   H1  H2  O   H1  H2  O   H1  H2  O   H1  H2  O   H1  H2  O   H1  H2  O   
H1  H2  O   H1  H2  O   H1  H2  O   H1  H2  O   H1  H2  O   H1  H2  O   H1  H2  
O   H1  H2  O   H1  H2  O   H1  H2  O   H1  H2  O   H1  H2  O   H1  H2  O   H1  
H2  O   H1  H2  O   H1  H2  O   H1  H2  O   H1  H2  O   H1  H2  O   H1  H2  O   
H1  H2  O   H1  H2  O   H1  H2  O   H1  H2  O   H1  H2  O   H1  H2  O   H1  H2  
O   H1  H2  O   H1  H2  O   H1  H2  O   H1  H2  O   H1  H2  O   H1  H2  O   H1  
H2  O   H1  H2  O   H1  H2  O   H1  H2  O   H1  H2  O   H1  H2  O   H1  H2  O   
H1  H2  O   H1  H2  O   H1  H2  O   H1  H2  O   H1  H2  O   H1  H2  O   H1  H2  
O   H1  H2  O   H1  H2  O   H1  H2  O   H1  H2  O   H1  H2  O   H1  H2  O   H1  
H2  O   H1  H2  O   H1  H2  O   H1  H2  O   H1  H2  O   H1  H2  O   H1  H2  O   
H1  H2  O   H1  H2  O   H1  H2  O   H1  H2  O   H1  H2  O   H1  H2  O   H1  H2  
O   H1  H2  O   H1  H2  O   H1  H2  O   H1  H2  O   H1  H2  O   H1  H2  O   H1  
H2  O   H1  H2  O   H1  H2  O   H1  H2  O   H1  H2  O   H1  H2  O   H1  H2  O   
H1  H2  O   H1  H2  O   H1  H2  O   H1  H2  O   H1  H2  O   H1  H2  O   H1  H2  
O   H1  H2  O   H1  H2  O   H1  H2  O   H1  H2  O   H1  H2  O   H1  H2  O   H1  
H2  O   H1  H2  O   H1  H2  O   H1  H2  O   H1  H2  O   H1  H2  O   H1  H2  O   
H1  H2  O   H1  H2  O   H1  H2  O   H1  H2  O   H1  H2  O   H1  H2  O   H1  H2  
O   H1  H2  O   H1  H2  O   H1  H2  O   H1  H2  O   H1  H2  O   H1  H2  O   H1  
H2  O   H1  H2  O   H1  H2  O   H1  H2  O   H1  H2  O   H1  H2  O   H1  H2  O   
H1  H2  O   H1  H2  O   H1  H2  O   H1  H2  O   H1  H2  O   H1  H2  O   H1  H2  
O   H1  H2  O   H1  H2  O   H1  H2  O   H1  H2  O   H1  H2  O   H1  H2  O   H1  
H2  O   H1  H2  O   H1  H2  O   H1  H2  O   H1  H2  O   H1  H2  O   H1  H2  O   
H1  H2  O   H1  H2  O   H1  H2  O   H1  H2  O   H1  H2  O   H1  H2  O   H1  H2  
O   H1  H2  O   H1  H2  O   H1  H2  O   H1  H2  O   H1  H2  O   H1  H2  O   H1  
H2  O   H1  H2  O   H1  H2  O   H1  H2  O   H1  H2  O   H1  H2  O   H1  H2  O   
H1  H2  O   H1  H2  O   H1  H2  O   H1  H2  O   H1  H2  O   H1  H2  O   H1  H2  
O   H1  H2  O   H1  H2  O   H1  H2  O   H1  H2  O   H1  H2  O   H1  H2  O   H1  
H2  O   H1  H2  O   H1  H2  O   H1  H2  O   H1  H2  O   H1  H2  O   H1  H2  O   
H1  H2  O   H1  H2  O   H1  H2  O   H1  H2  O   H1  H2  O   H1  H2  O   H1  H2  
O   H1  H2  O   H1  H2  O   H1  H2  O   H1  H2  O   H1  H2  O   H1  H2  O   H1  
H2  O   H1  H2  O   H1  H2  O   H1  H2  O   H1  H2  O   H1  H2  O   H1  H2  O   
H1  H2  O   H1  H2  O   H1  H2  O   H1  H2  O   H1  H2  O   H1  H2  O   H1  H2  
O   H1  H2  O   H1  H2  O   H1  H2  O   H1  H2  O   H1  H2  O   H1  H2  O   H1  
H2  O   H1  H2  O   H1  H2  O   H1  H2  O   H1  H2  O   H1  H2  O   H1  H2  O   
H1  H2  O   H1  H2  O   H1  H2  O   H1  H2  O   H1  H2  O   H1  H2  O   H1  H2  
O   H1  H2  O   H1  H2  O   H1  H2  O   H1  H2  O   H1  H2  O   H1  H2  O   H1  
H2  O   H1  H2  O   H1  H2  O   H1  H2  O   H1  H2  O   H1  H2  O   H1  H2  O   
H1  H2  O   H1  H2  O   H1  H2  O   H1  H2  O   H1  H2  O   H1  H2  O   H1  H2  
O   H1  H2  O   H1  H2  O   H1  H2  O   H1  H2  O   H1  H2  O   H1  H2  O   H1  
H2  O   H1  H2  O   H1  H2  O   H1  H2  O   H1  H2  O   H1  H2  O   H1  H2  O   
H1  H2  O   H1  H2  O   H1  H2  O   H1  H2  O   H1  H2  O   H1  H2  O   H1  H2  
O   H1  H2  O   H1  H2  O   H1  H2  O   H1  H2  O   H1  H2  O   H1  H2  O   H1  
H2  O   H1  H2  O   H1  H2  O   H1  H2  O   H1  H2  O   H1  H2  O   H1  H2  O   
H1  H2  O   H1  H2  O   H1  H2  O   H1  H2  O   H1  H2  O   H1  H2  O   H1  H2  
O   H1  H2  O   H1  H2  O   H1  H2  O   H1  H2  O   H1  H2  O   H1  H2  O   H1  
H2  O   H1  H2  O   H1  H2  O   H1  H2  O   H1  H2  O   H1  H2  O   H1  H2  O   
H1  H2  O   H1  H2  O   H1  H2  O   H1  H2  O   H1  H2  O   H1  H2  O   H1  H2  
O   H1  H2  O   H1  H2  O   H1  H2  O   H1  H2  O   H1  H2  O   H1  H2  O   H1  
H2  O   H1  H2  O   H1  H2  O   H1  H2  O   H1  H2  O   H1  H2  O   H1  H2  O   
H1  H2  O   H1  H2  O   H1  H2  O   H1  H2  O   H1  H2  O   H1  H2  O   H1  H2  
O   H1  H2  O   H1  H2  O   H1  H2  O   H1  H2  O   H1  H2  O   H1  H2  O   H1  
H2  O   H1  H2  O   H1  H2  O   H1  H2  O   H1  H2  O   H1  H2  O   H1  H2  O   
H1  H2  O   H1  H2  O   H1  H2  O   H1  H2  O   H1  H2  O   H1  H2  O   H1  H2  
O   H1  H2  O   H1  H2  O   H1  H2  O   H1  H2  O   H1  H2  O   H1  H2  O   H1  
H2  O   H1  H2  O   H1  H2  O   H1  H2  O   H1  H2  O   H1  H2  O   H1  H2  O   
H1  H2  O   H1  H2  O   H1  H2  O   H1  H2  O   H1  H2  O   H1  H2  O   H1  H2  
O   H1  H2  O   H1  H2  O   H1  H2  O   H1  H2  O   H1  H2  O   H1  H2  O   H1  
H2  O   H1  H2  O   H1  H2  O   H1  H2  O   H1  H2  O   H1  H2  O   H1  H2  O   
H1  H2  O   H1  H2  O   H1  H2  O   H1  H2  O   H1  H2  O   H1  H2  O   H1  H2  
O   H1  H2  O   H1  H2  O   H1  H2  O   H1  H2  O   H1  H2  O   H1  H2  O   H1  
H2  O   H1  H2  O   H1  H2  O   H1  H2  O   H1  H2  O   H1  H2  O   H1  H2  O   
H1  H2  O   H1  H2  O   H1  H2  O   H1  H2  O   H1  H2  O   H1  H2  O   H1  H2  
O   H1  H2  O   H1  H2  O   H1  H2  O   H1  H2  O   H1  H2  O   H1  H2  O   H1  
H2  O   H1  H2  O   H1  H2  O   H1  H2  O   H1  H2  O   H1  H2  O   H1  H2  O   
H1  H2  O   H1  H2  O   H1  H2  O   H1  H2  O   H1  H2  O   H1  H2  O   H1  H2  
O   H1  H2  O   H1  H2  O   H1  H2  O   H1  H2  O   H1  H2  O   H1  H2  O   H1  
H2  O   H1  H2  O   H1  H2  O   H1  H2  O   H1  H2  O   H1  H2  O   H1  H2  O   
H1  H2  O   H1  H2  O   H1  H2  O   H1  H2  O   H1  H2  O   H1  H2  O   H1  H2  
O   H1  H2  O   H1  H2  O   H1  H2  O   H1  H2  O   H1  H2  O   H1  H2  O   H1  
H2  O   H1  H2  O   H1  H2  O   H1  H2  O   H1  H2  O   H1  H2  O   H1  H2  O   
H1  H2  O   H1  H2  O   H1  H2  O   H1  H2  O   H1  H2  O   H1  H2  O   H1  H2  
O   H1  H2  O   H1  H2  O   H1  H2  O   H1  H2  O   H1  H2  O   H1  H2  O   H1  
H2  O   H1  H2  O   H1  H2  O   H1  H2  O   H1  H2  O   H1  H2  O   H1  H2  O   
H1  H2  O   H1  H2  O   H1  H2  O   H1  H2  O   H1  H2  O   H1  H2  O   H1  H2  
O   H1  H2  O   H1  H2  O   H1  H2  O   H1  H2  O   H1  H2  O   H1  H2  O   H1  
H2  O   H1  H2  O   H1  H2  O   H1  H2  O   H1  H2  O   H1  H2  O   H1  H2  O   
H1  H2  O   H1  H2  O   H1  H2  O   H1  H2  O   H1  H2  O   H1  H2  O   H1  H2  
O   H1  H2  O   H1  H2  O   H1  H2  O   H1  H2  O   H1  H2  O   H1  H2  O   H1  
H2  O   H1  H2  O   H1  H2  O   H1  H2  O   H1  H2  O   H1  H2  O   H1  H2  O   
H1  H2  O   H1  H2  O   H1  H2  O   H1  H2  O   H1  H2  O   H1  H2  O   H1  H2  
O   H1  H2  O   H1  H2  O   H1  H2  O   H1  H2  O   H1  H2  O   H1  H2  O   H1  
H2  O   H1  H2  O   H1  H2  O   H1  H2  O   H1  H2  O   H1  H2  O   H1  H2  O   
H1  H2  O   H1  H2  O   H1  H2  O   H1  H2  O   H1  H2  O   H1  H2  O   H1  H2  
O   H1  H2  O   H1  H2  O   H1  H2  O   H1  H2  O   H1  H2  O   H1  H2  O   H1  
H2  O   H1  H2  O   H1  H2  O   H1  H2  O   H1  H2  O   H1  H2  O   H1  H2  O   
H1  H2  O   H1  H2  O   H1  H2  O   H1  H2  O   H1  H2  O   H1  H2  O   H1  H2  
O   H1  H2  O   H1  H2  O   H1  H2  O   H1  H2  O   H1  H2  O   H1  H2  O   H1  
H2  O   H1  H2  O   H1  H2  O   H1  H2  O   H1  H2  O   H1  H2  O   H1  H2  O   
H1  H2  O   H1  H2  O   H1  H2  O   H1  H2  O   H1  H2  O   H1  H2  O   H1  H2  
O   H1  H2  O   H1  H2  O   H1  H2  O   H1  H2  O   H1  H2  O   H1  H2  O   H1  
H2  O   H1  H2  O   H1  H2  O   H1  H2  O   H1  H2  O   H1  H2  O   H1  H2  O   
H1  H2  O   H1  H2  O   H1  H2  O   H1  H2  O   H1  H2  O   H1  H2  O   H1  H2  
O   H1  H2  O   H1  H2  O   H1  H2  O   H1  H2  O   H1  H2  O   H1  H2  O   H1  
H2  O   H1  H2  O   H1  H2  O   H1  H2  O   H1  H2  O   H1  H2  O   H1  H2  O   
H1  H2  O   H1  H2  O   H1  H2  O   H1  H2  O   H1  H2  O   H1  H2  O   H1  H2  
O   H1  H2  O   H1  H2  O   H1  H2  O   H1  H2  O   H1  H2  O   H1  H2  O   H1  
H2  O   H1  H2  O   H1  H2  O   H1  H2  O   H1  H2  O   H1  H2  O   H1  H2  O   
H1  H2  O   H1  H2  O   H1  H2  O   H1  H2  O   H1  H2  O   H1  H2  O   H1  H2  
O   H1  H2  O   H1  H2  O   H1  H2  O   H1  H2  O   H1  H2  O   H1  H2  O   H1  
H2  O   H1  H2  O   H1  H2  O   H1  H2  O   H1  H2  O   H1  H2  O   H1  H2  O   
H1  H2  O   H1  H2  O   H1  H2  O   H1  H2  O   H1  H2  O   H1  H2  O   H1  H2  
O   H1  H2  O   H1  H2  O   H1  H2  O   H1  H2  O   H1  H2  O   H1  H2  O   H1  
H2  O   H1  H2  O   H1  H2  O   H1  H2  O   H1  H2  O   H1  H2  O   H1  H2  O   
H1  H2  O   H1  H2  O   H1  H2  O   H1  H2  O   H1  H2  O   H1  H2  O   H1  H2  
O   H1  H2  O   H1  H2  O   H1  H2  O   H1  H2  O   H1  H2  O   H1  H2  O   H1  
H2  O   H1  H2  O   H1  H2  O   H1  H2  O   H1  H2  O   H1  H2  O   H1  H2  O   
H1  H2  O   H1  H2  O   H1  H2  O   H1  H2  O   H1  H2  O   H1  H2  O   H1  H2  
O   H1  H2  O   H1  H2  O   H1  H2  O   H1  H2  O   H1  H2  O   H1  H2  O   H1  
H2  O   H1  H2  O   H1  H2  O   H1  H2  O   H1  H2  O   H1  H2  O   H1  H2  O   
H1  H2  O   H1  H2  O   H1  H2  O   H1  H2  O   H1  H2  O   H1  H2  O   H1  H2  
O   H1  H2  O   H1  H2  O   H1  H2  O   H1  H2  O   H1  H2  O   H1  H2  O   H1  
H2  O   H1  H2  O   H1  H2  O   H1  H2  O   H1  H2  O   H1  H2  O   H1  H2  O   
H1  H2  O   H1  H2  O   H1  H2  O   H1  H2  O   H1  H2  O   H1  H2  O   H1  H2  
O   H1  H2  O   H1  H2  O   H1  H2  O   H1  H2  O   H1  H2  O   H1  H2  O   H1  
H2  O   H1  H2  O   H1  H2  O   H1  H2  O   H1  H2  O   H1  H2  O   H1  H2  O   
H1  H2  O   H1  H2  O   H1  H2  O   H1  H2  O   H1  H2  O   H1  H2  O   H1  H2  
O   H1  H2  O   H1  H2  O   H1  H2  O   H1  H2  O   H1  H2  O   H1  H2  O   H1  
H2  O   H1  H2  O   H1  H2  O   H1  H2  O   H1  H2  O   H1  H2  O   H1  H2  O   
H1  H2  O   H1  H2  O   H1  H2  O   H1  H2  O   H1  H2  O   H1  H2  O   H1  H2  
O   H1  H2  O   H1  H2  O   H1  H2  O   H1  H2  O   H1  H2  O   H1  H2  O   H1  
H2  O   H1  H2  O   H1  H2  O   H1  H2  O   H1  H2  O   H1  H2  O   H1  H2  O   
H1  H2  O   H1  H2  O   H1  H2  O   H1  H2  O   H1  H2  O   H1  H2  O   H1  H2  
O   H1  H2  O   H1  H2  O   H1  H2  O   H1  H2  O   H1  H2  O   H1  H2  O   H1  
H2  O   H1  H2  O   H1  H2  O   H1  H2  O   H1  H2  O   H1  H2  O   H1  H2  O   
H1  H2  O   H1  H2  O   H1  H2  O   H1  H2  O   H1  H2  O   H1  H2  O   H1  H2  
O   H1  H2  O   H1  H2  O   H1  H2  O   H1  H2  O   H1  H2  O   H1  H2  O   H1  
H2  O   H1  H2  O   H1  H2  O   H1  H2  O   H1  H2  O   H1  H2  O   H1  H2  O   
H1  H2  O   H1  H2  O   H1  H2  O   H1  H2  O   H1  H2  O   H1  H2  O   H1  H2  
O   H1  H2  O   H1  H2  O   H1  H2  O   H1  H2  O   H1  H2  O   H1  H2  O   H1  
H2  O   H1  H2  O   H1  H2  O   H1  H2  O   H1  H2  O   H1  H2  O   H1  H2  O   
H1  H2  O   H1  H2  O   H1  H2  O   H1  H2  O   H1  H2  O   H1  H2  O   H1  H2  
O   H1  H2  O   H1  H2  O   H1  H2  O   H1  H2  O   H1  H2  O   H1  H2  O   H1  
H2  O   H1  H2  O   H1  H2  O   H1  H2  O   H1  H2  O   H1  H2  O   H1  H2  O   
H1  H2  O   H1  H2  O   H1  H2  O   H1  H2  O   H1  H2  O   H1  H2  O   H1  H2  
O   H1  H2  O   H1  H2  O   H1  H2  O   H1  H2  O   H1  H2  O   H1  H2  O   H1  
H2  O   H1  H2  O   H1  H2  O   H1  H2  O   H1  H2  O   H1  H2  O   H1  H2  O   
H1  H2  O   H1  H2  O   H1  H2  O   H1  H2  O   H1  H2  O   H1  H2  O   H1  H2  
O   H1  H2  O   H1  H2  O   H1  H2  O   H1  H2  O   H1  H2  O   H1  H2  O   H1  
H2  O   H1  H2  O   H1  H2  O   H1  H2  O   H1  H2  O   H1  H2  O   H1  H2  O   
H1  H2  O   H1  H2  O   H1  H2  O   H1  H2  O   H1  H2  O   H1  H2  O   H1  H2  
O   H1  H2  O   H1  H2  O   H1  H2  O   H1  H2  O   H1  H2  O   H1  H2  O   H1  
H2  O   H1  H2  O   H1  H2  O   H1  H2  O   H1  H2  O   H1  H2  O   H1  H2  O   
H1  H2  O   H1  H2  O   H1  H2  O   H1  H2  O   H1  H2  O   H1  H2  O   H1  H2  
O   H1  H2  O   H1  H2  O   H1  H2  O   H1  H2  O   H1  H2  O   H1  H2  O   H1  
H2  O   H1  H2  O   H1  H2  O   H1  H2  O   H1  H2  O   H1  H2  O   H1  H2  O   
H1  H2  O   H1  H2  O   H1  H2  O   H1  H2  O   H1  H2  O   H1  H2  O   H1  H2  
O   H1  H2  O   H1  H2  O   H1  H2  O   H1  H2  O   H1  H2  O   H1  H2  O   H1  
H2  O   H1  H2  O   H1  H2  O   H1  H2  O   H1  H2  O   H1  H2  O   H1  H2  O   
H1  H2  O   H1  H2  O   H1  H2  O   H1  H2  O   H1  H2  O   H1  H2  O   H1  H2  
O   H1  H2  O   H1  H2  O   H1  H2  O   H1  H2  O   H1  H2  O   H1  H2  O   H1  
H2  O   H1  H2  O   H1  H2  O   H1  H2  O   H1  H2  O   H1  H2  O   H1  H2  O   
H1  H2  O   H1  H2  O   H1  H2  O   H1  H2  O   H1  H2  O   H1  H2  O   H1  H2  
O   H1  H2  O   H1  H2  O   H1  H2  O   H1  H2  O   H1  H2  O   H1  H2  O   H1  
H2  O   H1  H2  O   H1  H2  O   H1  H2  O   H1  H2  O   H1  H2  O   H1  H2  O   
H1  H2  O   H1  H2  O   H1  H2  O   H1  H2  O   H1  H2  O   H1  H2  O   H1  H2  
O   H1  H2  O   H1  H2  O   H1  H2  O   H1  H2  O   H1  H2  O   H1  H2  O   H1  
H2  O   H1  H2  O   H1  H2  O   H1  H2  O   H1  H2  O   H1  H2  O   H1  H2  O   
H1  H2  O   H1  H2  O   H1  H2  O   H1  H2  O   H1  H2  O   H1  H2  O   H1  H2  
O   H1  H2  O   H1  H2  O   H1  H2  O   H1  H2  O   H1  H2  O   H1  H2  O   H1  
H2  O   H1  H2  O   H1  H2  O   H1  H2  O   H1  H2  O   H1  H2  O   H1  H2  O   
H1  H2  O   H1  H2  O   H1  H2  O   H1  H2  O   H1  H2  O   H1  H2  O   H1  H2  
O   H1  H2  O   H1  H2  O   H1  H2  O   H1  H2  O   H1  H2  O   H1  H2  O   H1  
H2  O   H1  H2  O   H1  H2  O   H1  H2  O   H1  H2  O   H1  H2  O   H1  H2  O   
H1  H2  O   H1  H2  O   H1  H2  O   H1  H2  O   H1  H2  O   H1  H2  O   H1  H2  
O   H1  H2  O   H1  H2  O   H1  H2  O   H1  H2  O   H1  H2  O   H1  H2  O   H1  
H2  O   H1  H2  O   H1  H2  O   H1  H2  O   H1  H2  O   H1  H2  O   H1  H2  O   
H1  H2  O   H1  H2  O   H1  H2  O   H1  H2  O   H1  H2  O   H1  H2  O   H1  H2  
O   H1  H2  O   H1  H2  O   H1  H2  O   H1  H2  O   H1  H2  O   H1  H2  O   H1  
H2  O   H1  H2  O   H1  H2  O   H1  H2  O   H1  H2  O   H1  H2  O   H1  H2  O   
H1  H2  O   H1  H2  O   H1  H2  O   H1  H2  O   H1  H2  O   H1  H2  O   H1  H2  
O   H1  H2  O   H1  H2  O   H1  H2  O   H1  H2  O   H1  H2  O   H1  H2  O   H1  
H2  O   H1  H2  O   H1  H2  O   H1  H2  O   H1  H2  O   H1  H2  O   H1  H2  O   
H1  H2  O   H1  H2  O   H1  H2  O   H1  H2  O   H1  H2  O   H1  H2  O   H1  H2  
O   H1  H2  O   H1  H2  O   H1  H2  O   H1  H2  O   H1  H2  O   H1  H2  O   H1  
H2  O   H1  H2  O   H1  H2  O   H1  H2  O   H1  H2  O   H1  H2  O   H1  H2  O   
H1  H2  O   H1  H2  O   H1  H2  O   H1  H2  O   H1  H2  O   H1  H2  O   H1  H2  
O   H1  H2  O   H1  H2  O   H1  H2  O   H1  H2  O   H1  H2  O   H1  H2  O   H1  
H2  O   H1  H2  O   H1  H2  O   H1  H2  O   H1  H2  O   H1  H2  O   H1  H2  O   
H1  H2  O   H1  H2  O   H1  H2  O   H1  H2  O   H1  H2  O   H1  H2  O   H1  H2  
O   H1  H2  O   H1  H2  O   H1  H2  O   H1  H2  O   H1  H2  O   H1  H2  O   H1  
H2  O   H1  H2  O   H1  H2  O   H1  H2  O   H1  H2  O   H1  H2  O   H1  H2  O   
H1  H2  O   H1  H2  O   H1  H2  O   H1  H2  O   H1  H2  O   H1  H2  O   H1  H2  
O   H1  H2  O   H1  H2  O   H1  H2  O   H1  H2  O   H1  H2  O   H1  H2  O   H1  
H2  O   H1  H2  O   H1  H2  O   H1  H2  O   H1  H2  O   H1  H2  O   H1  H2  O   
H1  H2  O   H1  H2  O   H1  H2  O   H1  H2  O   H1  H2  O   H1  H2  O   H1  H2  
O   H1  H2  O   H1  H2  O   H1  H2  O   H1  H2  O   H1  H2  O   H1  H2  O   H1  
H2  O   H1  H2  O   H1  H2  O   H1  H2  O   H1  H2  O   H1  H2  O   H1  H2  O   
H1  H2  O   H1  H2  O   H1  H2  O   H1  H2  O   H1  H2  O   H1  H2  O   H1  H2  
O   H1  H2  O   H1  H2  O   H1  H2  O   H1  H2  O   H1  H2  O   H1  H2  O   H1  
H2  O   H1  H2  O   H1  H2  O   H1  H2  O   H1  H2  O   H1  H2  O   H1  H2  O   
H1  H2  O   H1  H2  O   H1  H2  O   H1  H2  O   H1  H2  O   H1  H2  O   H1  H2  
O   H1  H2  O   H1  H2  O   H1  H2  O   H1  H2  O   H1  H2  O   H1  H2  O   H1  
H2  O   H1  H2  O   H1  H2  O   H1  H2  O   H1  H2  O   H1  H2  O   H1  H2  O   
H1  H2  O   H1  H2  O   H1  H2  O   H1  H2  O   H1  H2  O   H1  H2  O   H1  H2  
O   H1  H2  O   H1  H2  O   H1  H2  O   H1  H2  O   H1  H2  O   H1  H2  O   H1  
H2  O   H1  H2  O   H1  H2  O   H1  H2  O   H1  H2  O   H1  H2  O   H1  H2  O   
H1  H2  O   H1  H2  O   H1  H2  O   H1  H2  O   H1  H2  O   H1  H2  O   H1  H2  
O   H1  H2  O   H1  H2  O   H1  H2  O   H1  H2  O   H1  H2  O   H1  H2  O   H1  
H2  O   H1  H2  O   H1  H2  O   H1  H2  O   H1  H2  O   H1  H2  O   H1  H2  O   
H1  H2  O   H1  H2  O   H1  H2  O   H1  H2  O   H1  H2  O   H1  H2  O   H1  H2  
O   H1  H2  O   H1  H2  O   H1  H2  O   H1  H2  O   H1  H2  O   H1  H2  O   H1  
H2  O   H1  H2  O   H1  H2  O   H1  H2  O   H1  H2  O   H1  H2  O   H1  H2  O   
H1  H2  O   H1  H2  O   H1  H2  O   H1  H2  O   H1  H2  O   H1  H2  O   H1  H2  
O   H1  H2  O   H1  H2  O   H1  H2  O   H1  H2  O   H1  H2  O   H1  H2  O   H1  
H2  O   H1  H2  O   H1  H2  O   H1  H2  O   H1  H2  O   H1  H2  O   H1  H2  O   
H1  H2  O   H1  H2  O   H1  H2  O   H1  H2  O   H1  H2  O   H1  H2  O   H1  H2  
O   H1  H2  O   H1  H2  O   H1  H2  O   H1  H2  O   H1  H2  O   H1  H2  O   H1  
H2  O   H1  H2  O   H1  H2  O   H1  H2  O   H1  H2  O   H1  H2  O   H1  H2  O   
H1  H2  O   H1  H2  O   H1  H2  O   H1  H2  O   H1  H2  O   H1  H2  O   H1  H2  
O   H1  H2  O   H1  H2  O   H1  H2  O   H1  H2  O   H1  H2  O   H1  H2  O   H1  
H2  O   H1  H2  O   H1  H2  O   H1  H2  O   H1  H2  O   H1  H2  O   H1  H2  O   
H1  H2  O   H1  H2  O   H1  H2  O   H1  H2  O   H1  H2  O   H1  H2  O   H1  H2  
O   H1  H2  O   H1  H2  O   H1  H2  O   H1  H2  O   H1  H2  O   H1  H2  O   H1  
H2  O   H1  H2  O   H1  H2  O   H1  H2  O   H1  H2  O   H1  H2  O   H1  H2  O   
H1  H2  O   H1  H2  O   H1  H2  O   H1  H2  O   H1  H2  O   H1  H2  O   H1  H2  
O   H1  H2  O   H1  H2  O   H1  H2  O   H1  H2  O   H1  H2  O   H1  H2  O   H1  
H2  O   H1  H2  O   H1  H2  O   H1  H2  O   H1  H2  O   H1  H2  O   H1  H2  O   
H1  H2  O   H1  H2  O   H1  H2  O   H1  H2  O   H1  H2  O   H1  H2  O   H1  H2  
O   H1  H2  O   H1  H2  O   H1  H2  O   H1  H2  O   H1  H2  O   H1  H2  O   H1  
H2  O   H1  H2  O   H1  H2  O   H1  H2  O   H1  H2  O   H1  H2  O   H1  H2  O   
H1  H2  O   H1  H2  O   H1  H2  O   H1  H2  O   H1  H2  O   H1  H2  O   H1  H2  
O   H1  H2  O   H1  H2  O   H1  H2  O   H1  H2  O   H1  H2  O   H1  H2  O   H1  
H2  O   H1  H2  O   H1  H2  O   H1  H2  O   H1  H2  O   H1  H2  O   H1  H2  O   
H1  H2  O   H1  H2  O   H1  H2  O   H1  H2  O   H1  H2  O   H1  H2  O   H1  H2  
O   H1  H2  O   H1  H2  O   H1  H2  O   H1  H2  O   H1  H2  O   H1  H2  O   H1  
H2  O   H1  H2  O   H1  H2  O   H1  H2  O   H1  H2  O   H1  H2  O   H1  H2  O   
H1  H2  O   H1  H2  O   H1  H2  O   H1  H2  O   H1  H2  O   H1  H2  O   H1  H2  
O   H1  H2  O   H1  H2  O   H1  H2  O   H1  H2  O   H1  H2  O   H1  H2  O   H1  
H2  O   H1  H2  O   H1  H2  O   H1  H2  O   H1  H2  O   H1  H2  O   H1  H2  O   
H1  H2  O   H1  H2  O   H1  H2  O   H1  H2  O   H1  H2  O   H1  H2  O   H1  H2  
O   H1  H2  O   H1  H2  O   H1  H2  O   H1  H2  O   H1  H2  O   H1  H2  O   H1  
H2  O   H1  H2  O   H1  H2  O   H1  H2  O   H1  H2  O   H1  H2  O   H1  H2  O   
H1  H2  O   H1  H2  O   H1  H2  O   H1  H2  O   H1  H2  O   H1  H2  O   H1  H2  
O   H1  H2  O   H1  H2  O   H1  H2  O   H1  H2  O   H1  H2  O   H1  H2  O   H1  
H2  O   H1  H2  O   H1  H2  O   H1  H2  O   H1  H2  O   H1  H2  O   H1  H2  O   
H1  H2  O   H1  H2  O   H1  H2  O   H1  H2  O   H1  H2  O   H1  H2  O   H1  H2  
O   H1  H2  O   H1  H2  O   H1  H2  O   H1  H2  O   H1  H2  O   H1  H2  O   H1  
H2  O   H1  H2  O   H1  H2  O   H1  H2  O   H1  H2  O   H1  H2  O   H1  H2  O   
H1  H2  O   H1  H2  O   H1  H2  O   H1  H2  O   H1  H2  O   H1  H2  O   H1  H2  
O   H1  H2  O   H1  H2  O   H1  H2  O   H1  H2  O   H1  H2  O   H1  H2  O   H1  
H2  O   H1  H2  O   H1  H2  O   H1  H2  O   H1  H2  O   H1  H2  O   H1  H2  O   
H1  H2  O   H1  H2  O   H1  H2  O   H1  H2  O   H1  H2  O   H1  H2  O   H1  H2  
O   H1  H2  O   H1  H2  O   H1  H2  O   H1  H2  O   H1  H2  O   H1  H2  O   H1  
H2  O   H1  H2  O   H1  H2  O   H1  H2  O   H1  H2  O   H1  H2  O   H1  H2  O   
H1  H2  O   H1  H2  O   H1  H2  O   H1  H2  O   H1  H2  O   H1  H2  O   H1  H2  
O   H1  H2  O   H1  H2  O   H1  H2  O   H1  H2  O   H1  H2  O   H1  H2  O   H1  
H2  O   H1  H2  O   H1  H2  O   H1  H2  O   H1  H2  O   H1  H2  O   H1  H2  O   
H1  H2  O   H1  H2  O   H1  H2  O   H1  H2  O   H1  H2  O   H1  H2  O   H1  H2  
O   H1  H2  O   H1  H2  O   H1  H2  O   H1  H2  O   H1  H2  O   H1  H2  O   H1  
H2  O   H1  H2  O   H1  H2  O   H1  H2  O   H1  H2  O   H1  H2  O   H1  H2  O   
H1  H2  O   H1  H2  O   H1  H2  O   H1  H2  O   H1  H2  O   H1  H2  O   H1  H2  
O   H1  H2  O   H1  H2  O   H1  H2  O   H1  H2  O   H1  H2  O   H1  H2  O   H1  
H2  O   H1  H2  O   H1  H2  O   H1  H2  O   H1  H2  O   H1  H2  O   H1  H2  O   
H1  H2  O   H1  H2  O   H1  H2  O   H1  H2  O   H1  H2  O   H1  H2  O   H1  H2  
O   H1  H2  O   H1  H2  O   H1  H2  O   H1  H2  O   H1  H2  O   H1  H2  O   H1  
H2  O   H1  H2  O   H1  H2  O   H1  H2  O   H1  H2  O   H1  H2  O   H1  H2  O   
H1  H2  O   H1  H2  O   H1  H2  O   H1  H2  O   H1  H2  O   H1  H2  O   H1  H2  
O   H1  H2  O   H1  H2  O   H1  H2  O   H1  H2  O   H1  H2  O   H1  H2  O   H1  
H2  O   H1  H2  O   H1  H2  O   H1  H2  O   H1  H2  O   H1  H2  O   H1  H2  O   
H1  H2  O   H1  H2  O   H1  H2  O   H1  H2  O   H1  H2  O   H1  H2  O   H1  H2  
O   H1  H2  O   H1  H2  O   H1  H2  O   H1  H2  O   H1  H2  O   H1  H2  O   H1  
H2  O   H1  H2  O   H1  H2  O   H1  H2  O   H1  H2  O   H1  H2  O   H1  H2  O   
H1  H2  O   H1  H2  O   H1  H2  O   H1  H2  O   H1  H2  O   H1  H2  O   H1  H2  
O   H1  H2  O   H1  H2  O   H1  H2  O   H1  H2  O   H1  H2  O   H1  H2  O   H1  
H2  O   H1  H2  O   H1  H2  O   H1  H2  O   H1  H2  O   H1  H2  O   H1  H2  O   
H1  H2  O   H1  H2  O   H1  H2  O   H1  H2  O   H1  H2  O   H1  H2  O   H1  H2  
O   H1  H2  O   H1  H2  O   H1  H2  O   H1  H2  O   H1  H2  O   H1  H2  O   H1  
H2  O   H1  H2  O   H1  H2  O   H1  H2  O   H1  H2  O   H1  H2  O   H1  H2  O   
H1  H2  O   H1  H2  O   H1  H2  O   H1  H2  O   H1  H2  O   H1  H2  O   H1  H2  
O   H1  H2  O   H1  H2  O   H1  H2  O   H1  H2  O   H1  H2  O   H1  H2  O   H1  
H2  O   H1  H2  O   H1  H2  O   H1  H2  O   H1  H2  O   H1  H2  O   H1  H2  O   
H1  H2  O   H1  H2  O   H1  H2  O   H1  H2  O   H1  H2  O   H1  H2  O   H1  H2  
O   H1  H2  O   H1  H2  O   H1  H2  O   H1  H2  O   H1  H2  O   H1  H2  O   H1  
H2  O   H1  H2  O   H1  H2  O   H1  H2  O   H1  H2  O   H1  H2  O   H1  H2  O   
H1  H2  O   H1  H2  O   H1  H2  O   H1  H2  O   H1  H2  O   H1  H2  O   H1  H2  
O   H1  H2  O   H1  H2  O   H1  H2  O   H1  H2  O   H1  H2  O   H1  H2  O   H1  
H2  O   H1  H2  O   H1  H2  O   H1  H2  O   H1  H2  O   H1  H2  O   H1  H2  O   
H1  H2  O   H1  H2  O   H1  H2  O   H1  H2  O   H1  H2  O   H1  H2  O   H1  H2  
O   H1  H2  O   H1  H2  O   H1  H2  O   H1  H2  O   H1  H2  O   H1  H2  O   H1  
H2  O   H1  H2  O   H1  H2  O   H1  H2  O   H1  H2  O   H1  H2  O   H1  H2  O   
H1  H2  O   H1  H2  O   H1  H2  O   H1  H2  O   H1  H2  O   H1  H2  O   H1  H2  
O   H1  H2  O   H1  H2  O   H1  H2  O   H1  H2  O   H1  H2  O   H1  H2  O   H1  
H2  O   H1  H2  O   H1  H2  O   H1  H2  O   H1  H2  O   H1  H2  O   H1  H2  O   
H1  H2  O   H1  H2  O   H1  H2  O   H1  H2  O   H1  H2  O   H1  H2  O   H1  H2  
O   H1  H2  O   H1  H2  O   H1  H2  O   H1  H2  O   H1  H2  O   H1  H2  O   H1  
H2  O   H1  H2  O   H1  H2  O   H1  H2  O   H1  H2  O   H1  H2  O   H1  H2  O   
H1  H2  O   H1  H2  O   H1  H2  O   H1  H2  O   H1  H2  O   H1  H2  O   H1  H2  
O   H1  H2  O   H1  H2  O   H1  H2  O   H1  H2  O   H1  H2  O   H1  H2  O   H1  
H2  O   H1  H2  O   H1  H2  O   H1  H2  O   H1  H2  O   H1  H2  O   H1  H2  O   
H1  H2  O   H1  H2  O   H1  H2  O   H1  H2  O   H1  H2  O   H1  H2  O   H1  H2  
O   H1  H2  O   H1  H2  O   H1  H2  O   H1  H2  O   H1  H2  O   H1  H2  O   H1  
H2  O   H1  H2  O   H1  H2  O   H1  H2  O   H1  H2  O   H1  H2  O   H1  H2  O   
H1  H2  O   H1  H2  O   H1  H2  O   H1  H2  O   H1  H2  O   H1  H2  O   H1  H2  
O   H1  H2  O   H1  H2  O   H1  H2  O   H1  H2  O   H1  H2  O   H1  H2  O   H1  
H2  O   H1  H2  O   H1  H2  O   H1  H2  O   H1  H2  O   H1  H2  O   H1  H2  O   
H1  H2  O   H1  H2  O   H1  H2  O   H1  H2  O   H1  H2  O   H1  H2  O   H1  H2  
O   H1  H2  O   H1  H2  O   H1  H2  O   H1  H2  O   H1  H2  O   H1  H2  O   H1  
H2  O   H1  H2  O   H1  H2  O   H1  H2  O   H1  H2  O   H1  H2  O   H1  H2  O   
H1  H2  O   H1  H2  O   H1  H2  O   H1  H2  O   H1  H2  O   H1  H2  O   H1  H2  
O   H1  H2  O   H1  H2  O   H1  H2  O   H1  H2  O   H1  H2  O   H1  H2  O   H1  
H2  O   H1  H2  O   H1  H2  O   H1  H2  O   H1  H2  O   H1  H2  O   H1  H2  O   
H1  H2  O   H1  H2  O   H1  H2  O   H1  H2  O   H1  H2  O   H1  H2  O   H1  H2  
O   H1  H2  O   H1  H2  O   H1  H2  O   H1  H2  O   H1  H2  O   H1  H2  O   H1  
H2  O   H1  H2  O   H1  H2  O   H1  H2  O   H1  H2  O   H1  H2  O   H1  H2  O   
H1  H2  O   H1  H2  O   H1  H2  O   H1  H2  O   H1  H2  O   H1  H2  O   H1  H2  
O   H1  H2  O   H1  H2  O   H1  H2  O   H1  H2  O   H1  H2  O   H1  H2  O   H1  
H2  O   H1  H2  O   H1  H2  O   H1  H2  O   H1  H2  O   H1  H2  O   H1  H2  O   
H1  H2  O   H1  H2  O   H1  H2  O   H1  H2  O   H1  H2  O   H1  H2  O   H1  H2  
O   H1  H2  O   H1  H2  O   H1  H2  O   H1  H2  O   H1  H2  O   H1  H2  O   H1  
H2  O   H1  H2  O   H1  H2  O   H1  H2  O   H1  H2  O   H1  H2  O   H1  H2  O   
H1  H2  O   H1  H2  O   H1  H2  O   H1  H2  O   H1  H2  O   H1  H2  O   H1  H2  
O   H1  H2  O   H1  H2  O   H1  H2  O   H1  H2  O   H1  H2  O   H1  H2  O   H1  
H2  O   H1  H2  O   H1  H2  O   H1  H2  O   H1  H2  O   H1  H2  O   H1  H2  O   
H1  H2  O   H1  H2  O   H1  H2  O   H1  H2  O   H1  H2  O   H1  H2  O   H1  H2  
O   H1  H2  O   H1  H2  O   H1  H2  O   H1  H2  O   H1  H2  O   H1  H2  O   H1  
H2  O   H1  H2  O   H1  H2  O   H1  H2  O   H1  H2  O   H1  H2  O   H1  H2  O   
H1  H2  O   H1  H2  O   H1  H2  O   H1  H2  O   H1  H2  O   H1  H2  O   H1  H2  
O   H1  H2  O   H1  H2  O   H1  H2  O   H1  H2  O   H1  H2  O   H1  H2  O   H1  
H2  O   H1  H2  O   H1  H2  O   H1  H2  O   H1  H2  O   H1  H2  O   H1  H2  O   
H1  H2  O   H1  H2  O   H1  H2  O   H1  H2  O   H1  H2  O   H1  H2  O   H1  H2  
O   H1  H2  O   H1  H2  O   H1  H2  O   H1  H2  O   H1  H2  O   H1  H2  O   H1  
H2  O   H1  H2  O   H1  H2  O   H1  H2  O   H1  H2  O   H1  H2  O   H1  H2  O   
H1  H2  O   H1  H2  O   H1  H2  O   H1  H2  O   H1  H2  O   H1  H2  O   H1  H2  
O   H1  H2  O   H1  H2  O   H1  H2  O   H1  H2  O   H1  H2  O   H1  H2  O   H1  
H2  O   H1  H2  O   H1  H2  O   H1  H2  O   H1  H2  O   H1  H2  O   H1  H2  O   
H1  H2  O   H1  H2  O   H1  H2  O   H1  H2  O   H1  H2  O   H1  H2  O   H1  H2  
O   H1  H2  O   H1  H2  O   H1  H2  O   H1  H2  O   H1  H2  O   H1  H2  O   H1  
H2  O   H1  H2  O   H1  H2  O   H1  H2  O   H1  H2  O   H1  H2  O   H1  H2  O   
H1  H2  O   H1  H2  O   H1  H2  O   H1  H2  O   H1  H2  O   H1  H2  O   H1  H2  
O   H1  H2  O   H1  H2  O   H1  H2  O   H1  H2  O   H1  H2  O   H1  H2  O   H1  
H2  O   H1  H2  O   H1  H2  O   H1  H2  O   H1  H2  O   H1  H2  O   H1  H2  O   
H1  H2  O   H1  H2  O   H1  H2  O   H1  H2  O   H1  H2  O   H1  H2  O   H1  H2  
O   H1  H2  O   H1  H2  O   H1  H2  O   H1  H2  O   H1  H2  O   H1  H2  O   H1  
H2  O   H1  H2  O   H1  H2  O   H1  H2  O   H1  H2  O   H1  H2  O   H1  H2  O   
H1  H2  O   H1  H2  O   H1  H2  O   H1  H2  O   H1  H2  O   H1  H2  O   H1  H2  
O   H1  H2  O   H1  H2  O   H1  H2  O   H1  H2  O   H1  H2  O   H1  H2  O   H1  
H2  O   H1  H2  O   H1  H2  O   H1  H2  O   H1  H2  O   H1  H2  O   H1  H2  O   
H1  H2  O   H1  H2  O   H1  H2  O   H1  H2  O   H1  H2  O   H1  H2  O   H1  H2  
O   H1  H2  O   H1  H2  O   H1  H2  O   H1  H2  O   H1  H2  O   H1  H2  O   H1  
H2  O   H1  H2  O   H1  H2  O   H1  H2  O   H1  H2  O   H1  H2  O   H1  H2  O   
H1  H2  O   H1  H2  O   H1  H2  O   H1  H2  O   H1  H2  O   H1  H2  O   H1  H2  
O   H1  H2  O   H1  H2  O   H1  H2  O   H1  H2  O   H1  H2  O   H1  H2  O   H1  
H2  O   H1  H2  O   H1  H2  O   H1  H2  O   H1  H2  O   H1  H2  O   H1  H2  O   
H1  H2  O   H1  H2  O   H1  H2  O   H1  H2  O   H1  H2  O   H1  H2  O   H1  H2  
O   H1  H2  O   H1  H2  O   H1  H2  O   H1  H2  O   H1  H2  O   H1  H2  O   H1  
H2  O   H1  H2  O   H1  H2  O   H1  H2  O   H1  H2  O   H1  H2  O   H1  H2  O   
H1  H2  O   H1  H2  O   H1  H2  O   H1  H2  O   H1  H2  O   H1  H2  O   H1  H2  
O   H1  H2  O   H1  H2  O   H1  H2  O   H1  H2  O   H1  H2  O   H1  H2  O   H1  
H2  O   H1  H2  O   H1  H2  O   H1  H2  O   H1  H2  O   H1  H2  O   H1  H2  O   
H1  H2  O   H1  H2  O   H1  H2  O   H1  H2  O   H1  H2  O   H1  H2  O   H1  H2  
O   H1  H2  O   H1  H2  O   H1  H2  O   H1  H2  O   H1  H2  O   H1  H2  O   H1  
H2  O   H1  H2  O   H1  H2  O   H1  H2  O   H1  H2  O   H1  H2  O   H1  H2  O   
H1  H2  O   H1  H2  O   H1  H2  O   H1  H2  O   H1  H2  O   H1  H2  O   H1  H2  
O   H1  H2  O   H1  H2  O   H1  H2  O   H1  H2  O   H1  H2  O   H1  H2  O   H1  
H2  O   H1  H2  O   H1  H2  O   H1  H2  O   H1  H2  O   H1  H2  O   H1  H2  O   
H1  H2  O   H1  H2  O   H1  H2  O   H1  H2  O   H1  H2  O   H1  H2  O   H1  H2  
O   H1  H2  O   H1  H2  O   H1  H2  O   H1  H2  O   H1  H2  O   H1  H2  O   H1  
H2  O   H1  H2  O   H1  H2  O   H1  H2  O   H1  H2  O   H1  H2  O   H1  H2  O   
H1  H2  O   H1  H2  O   H1  H2  O   H1  H2  O   H1  H2  O   H1  H2  O   H1  H2  
O   H1  H2  O   H1  H2  O   H1  H2  O   H1  H2  O   H1  H2  O   H1  H2  O   H1  
H2  O   H1  H2  O   H1  H2  O   H1  H2  O   H1  H2  O   H1  H2  O   H1  H2  O   
H1  H2  O   H1  H2  O   H1  H2  O   H1  H2  O   H1  H2  O   H1  H2  O   H1  H2  
O   H1  H2  O   H1  H2  O   H1  H2  O   H1  H2  O   H1  H2  O   H1  H2  O   H1  
H2  O   H1  H2  O   H1  H2  O   H1  H2  O   H1  H2  O   H1  H2  O   H1  H2  O   
H1  H2  O   H1  H2  O   H1  H2  O   H1  H2  O   H1  H2  O   H1  H2  O   H1  H2  
O   H1  H2  O   H1  H2  O   H1  H2  O   H1  H2  O   H1  H2  O   H1  H2  O   H1  
H2  O   H1  H2  O   H1  H2  O   H1  H2  O   H1  H2  O   H1  H2  O   H1  H2  O   
H1  H2  O   H1  H2  O   H1  H2  O   H1  H2  O   H1  H2  O   H1  H2  O   H1  H2  
O   H1  H2  O   H1  H2  O   H1  H2  O   H1  H2  O   H1  H2  O   H1  H2  O   H1  
H2  O   H1  H2  O   H1  H2  O   H1  H2  O   H1  H2  O   H1  H2  O   H1  H2  O   
H1  H2  O   H1  H2  O   H1  H2  O   H1  H2  O   H1  H2  O   H1  H2  O   H1  H2  
O   H1  H2  O   H1  H2  O   H1  H2  O   H1  H2  O   H1  H2  O   H1  H2  O   H1  
H2  O   H1  H2  O   H1  H2  O   H1  H2  O   H1  H2  O   H1  H2  O   H1  H2  O   
H1  H2  O   H1  H2  O   H1  H2  O   H1  H2  O   H1  H2  O   H1  H2  O   H1  H2  
O   H1  H2  O   H1  H2  O   H1  H2  O   H1  H2  O   H1  H2  O   H1  H2  O   H1  
H2  O   H1  H2  O   H1  H2  O   H1  H2  O   H1  H2  O   H1  H2  O   H1  H2  O   
H1  H2  O   H1  H2  O   H1  H2  O   H1  H2  O   H1  H2  O   H1  H2  O   H1  H2  
O   H1  H2  O   H1  H2  O   H1  H2  O   H1  H2  O   H1  H2  O   H1  H2  O   H1  
H2  O   H1  H2  O   H1  H2  O   H1  H2  O   H1  H2  O   H1  H2  O   H1  H2  O   
H1  H2  O   H1  H2  O   H1  H2  O   H1  H2  O   H1  H2  O   H1  H2  O   H1  H2  
O   H1  H2  O   H1  H2  O   H1  H2  O   H1  H2  O   H1  H2  O   H1  H2  O   H1  
H2  O   H1  H2  O   H1  H2  O   H1  H2  O   H1  H2  O   H1  H2  O   H1  H2  O   
H1  H2  O   H1  H2  O   H1  H2  O   H1  H2  O   H1  H2  O   H1  H2  O   H1  H2  
O   H1  H2  O   H1  H2  O   H1  H2  O   H1  H2  O   H1  H2  O   H1  H2  O   H1  
H2  O   H1  H2  O   H1  H2  O   H1  H2  O   H1  H2  O   H1  H2  O   H1  H2  O   
H1  H2  O   H1  H2  O   H1  H2  O   H1  H2  O   H1  H2  O   H1  H2  O   H1  H2  
O   H1  H2  O   H1  H2  O   H1  H2  O   H1  H2  O   H1  H2  O   H1  H2  O   H1  
H2  O   H1  H2  O   H1  H2  O   H1  H2  O   H1  H2  O   H1  H2  O   H1  H2  O   
H1  H2  O   H1  H2  O   H1  H2  O   H1  H2  O   H1  H2  O   H1  H2  O   H1  H2  
O   H1  H2  O   H1  H2  O   H1  H2  O   H1  H2  O   H1  H2  O   H1  H2  O   H1  
H2  O   H1  H2  O   H1  H2  O   H1  H2  O   H1  H2  O   H1  H2  O   H1  H2  O   
H1  H2  O   H1  H2  O   H1  H2  O   H1  H2  O   H1  H2  O   H1  H2  O   H1  H2  
O   H1  H2  O   H1  H2  O   H1  H2  O   H1  H2  O   H1  H2  O   H1  H2  O   H1  
H2  O   H1  H2  O   H1  H2  O   H1  H2  O   H1  H2  O   H1  H2  O   H1  H2  O   
H1  H2  O   H1  H2  O   H1  H2  O   H1  H2  O   H1  H2  O   H1  H2  O   H1  H2  
O   H1  H2  O   H1  H2  O   H1  H2  O   H1  H2  O   H1  H2  O   H1  H2  O   H1  
H2  O   H1  H2  O   H1  H2  O   H1  H2  O   H1  H2  O   H1  H2  O   H1  H2  O   
H1  H2  O   H1  H2  O   H1  H2  O   H1  H2  O   H1  H2  O   H1  H2  O   H1  H2  
O   H1  H2  O   H1  H2  O   H1  H2  O   H1  H2  O   H1  H2  O   H1  H2  O   H1  
H2  O   H1  H2  O   H1  H2  O   H1  H2  O   H1  H2  O   H1  H2  O   H1  H2  O   
H1  H2  O   H1  H2  O   H1  H2  O   H1  H2  O   H1  H2  O   H1  H2  O   H1  H2  
O   H1  H2  O   H1  H2  O   H1  H2  O   H1  H2  O   H1  H2  O   H1  H2  O   H1  
H2  O   H1  H2  O   H1  H2  O   H1  H2  O   H1  H2  O   H1  H2  O   H1  H2  O   
H1  H2  O   H1  H2  O   H1  H2  O   H1  H2  O   H1  H2  O   H1  H2  O   H1  H2  
O   H1  H2  O   H1  H2  O   H1  H2  O   H1  H2  O   H1  H2  O   H1  H2  O   H1  
H2  O   H1  H2  O   H1  H2  O   H1  H2  O   H1  H2  O   H1  H2  O   H1  H2  O   
H1  H2  O   H1  H2  O   H1  H2  O   H1  H2  O   H1  H2  O   H1  H2  O   H1  H2  
O   H1  H2  O   H1  H2  O   H1  H2  O   H1  H2  O   H1  H2  O   H1  H2  O   H1  
H2  O   H1  H2  O   H1  H2  O   H1  H2  O   H1  H2  O   H1  H2  O   H1  H2  O   
H1  H2  O   H1  H2  O   H1  H2  O   H1  H2  O   H1  H2  O   H1  H2  O   H1  H2  
O   H1  H2  O   H1  H2  O   H1  H2  O   H1  H2  O   H1  H2  O   H1  H2  O   H1  
H2  O   H1  H2  O   H1  H2  O   H1  H2  O   H1  H2  O   H1  H2  O   H1  H2  O   
H1  H2  O   H1  H2  O   H1  H2  O   H1  H2  O   H1  H2  O   H1  H2  O   H1  H2  
O   H1  H2  O   H1  H2  O   H1  H2  O   H1  H2  O   H1  H2  O   H1  H2  O   H1  
H2  O   H1  H2  O   H1  H2  O   H1  H2  O   H1  H2  O   H1  H2  O   H1  H2  O   
H1  H2  O   H1  H2  O   H1  H2  O   H1  H2  O   H1  H2  O   H1  H2  O   H1  H2  
O   H1  H2  O   H1  H2  O   H1  H2  O   H1  H2  O   H1  H2  O   H1  H2  O   H1  
H2  O   H1  H2  O   H1  H2  O   H1  H2  O   H1  H2  O   H1  H2  O   H1  H2  O   
H1  H2  O   H1  H2  O   H1  H2  O   H1  H2  O   H1  H2  O   H1  H2  O   H1  H2  
O   H1  H2  O   H1  H2  O   H1  H2  O   H1  H2  O   H1  H2  O   H1  H2  O   H1  
H2  O   H1  H2  O   H1  H2  O   H1  H2  O   H1  H2  O   H1  H2  O   H1  H2  O   
H1  H2  O   H1  H2  O   H1  H2  O   H1  H2  O   H1  H2  O   H1  H2  O   H1  H2  
O   H1  H2  O   H1  H2  O   H1  H2  O   H1  H2  O   H1  H2  O   H1  H2  O   H1  
H2  O   H1  H2  O   H1  H2  O   H1  H2  O   H1  H2  O   H1  H2  O   H1  H2  O   
H1  H2  O   H1  H2  O   H1  H2  O   H1  H2  O   H1  H2  O   H1  H2  O   H1  H2  
O   H1  H2  O   H1  H2  O   H1  H2  O   H1  H2  O   H1  H2  O   H1  H2  O   H1  
H2  O   H1  H2  O   H1  H2  O   H1  H2  O   H1  H2  O   H1  H2  O   H1  H2  O   
H1  H2  O   H1  H2  O   H1  H2  O   H1  H2  O   H1  H2  O   H1  H2  O   H1  H2  
O   H1  H2  O   H1  H2  O   H1  H2  O   H1  H2  O   H1  H2  O   H1  H2  O   H1  
H2  O   H1  H2  O   H1  H2  O   H1  H2  O   H1  H2  O   H1  H2  O   H1  H2  O   
H1  H2  O   H1  H2  O   H1  H2  O   H1  H2  O   H1  H2  O   H1  H2  O   H1  H2  
O   H1  H2  O   H1  H2  O   H1  H2  O   H1  H2  O   H1  H2  O   H1  H2  O   H1  
H2  O   H1  H2  O   H1  H2  O   H1  H2  O   H1  H2  O   H1  H2  O   H1  H2  O   
H1  H2  O   H1  H2  O   H1  H2  O   H1  H2  O   H1  H2  O   H1  H2  O   H1  H2  
O   H1  H2  O   H1  H2  O   H1  H2  O   H1  H2  O   H1  H2  O   H1  H2  O   H1  
H2  O   H1  H2  O   H1  H2  O   H1  H2  O   H1  H2  O   H1  H2  O   H1  H2  O   
H1  H2  O   H1  H2  O   H1  H2  O   H1  H2  O   H1  H2  O   H1  H2  O   H1  H2  
O   H1  H2  O   H1  H2  O   H1  H2  O   H1  H2  O   H1  H2  O   H1  H2  O   H1  
H2  O   H1  H2  O   H1  H2  O   H1  H2  O   H1  H2  O   H1  H2  O   H1  H2  O   
H1  H2  O   H1  H2  O   H1  H2  O   H1  H2  O   H1  H2  O   H1  H2  O   H1  H2  
O   H1  H2  O   H1  H2  O   H1  H2  O   H1  H2  O   H1  H2  O   H1  H2  O   H1  
H2  O   H1  H2  O   H1  H2  O   H1  H2  O   H1  H2  O   H1  H2  O   H1  H2  O   
H1  H2  O   H1  H2  O   H1  H2  O   H1  H2  O   H1  H2  O   H1  H2  O   H1  H2  
O   H1  H2  O   H1  H2  O   H1  H2  O   H1  H2  O   H1  H2  O   H1  H2  O   H1  
H2  O   H1  H2  O   H1  H2  O   H1  H2  O   H1  H2  O   H1  H2  O   H1  H2  O   
H1  H2  O   H1  H2  O   H1  H2  O   H1  H2  O   H1  H2  O   H1  H2  O   H1  H2  
O   H1  H2  O   H1  H2  O   H1  H2  O   H1  H2  O   H1  H2  O   H1  H2  O   H1  
H2  O   H1  H2  O   H1  H2  O   H1  H2  O   H1  H2  O   H1  H2  O   H1  H2  O   
H1  H2  O   H1  H2  O   H1  H2  O   H1  H2  O   H1  H2  O   H1  H2  O   H1  H2  
O   H1  H2  O   H1  H2  O   H1  H2  O   H1  H2  O   H1  H2  O   H1  H2  O   H1  
H2  O   H1  H2  O   H1  H2  O   H1  H2  O   H1  H2  O   H1  H2  O   H1  H2  O   
H1  H2  O   H1  H2  O   H1  H2  O   H1  H2  O   H1  H2  O   H1  H2  O   H1  H2  
O   H1  H2  O   H1  H2  O   H1  H2  O   H1  H2  O   H1  H2  O   H1  H2  O   H1  
H2  O   H1  H2  O   H1  H2  O   H1  H2  O   H1  H2  O   H1  H2  O   H1  H2  O   
H1  H2  O   H1  H2  O   H1  H2  O   H1  H2  O   H1  H2  O   H1  H2  O   H1  H2  
O   H1  H2  O   H1  H2  O   H1  H2  O   H1  H2  O   H1  H2  O   H1  H2  O   H1  
H2  O   H1  H2  O   H1  H2  O   H1  H2  O   H1  H2  O   H1  H2  O   H1  H2  O   
H1  H2  O   H1  H2  O   H1  H2  O   H1  H2  O   H1  H2  O   H1  H2  O   H1  H2  
O   H1  H2  O   H1  H2  O   H1  H2  O   H1  H2  O   H1  H2  O   H1  H2  O   H1  
H2  O   H1  H2  O   H1  H2  O   H1  H2  O   H1  H2  O   H1  H2  O   H1  H2  O   
H1  H2  O   H1  H2  O   H1  H2  O   H1  H2  O   H1  H2  O   H1  H2  O   H1  H2  
O   H1  H2  O   H1  H2  O   H1  H2  O   H1  H2  O   H1  H2  O   H1  H2  O   H1  
H2  O   H1  H2  O   H1  H2  O   H1  H2  O   H1  H2  O   H1  H2  O   H1  H2  O   
H1  H2  O   H1  H2  O   H1  H2  O   H1  H2  O   H1  H2  O   H1  H2  O   H1  H2  
O   H1  H2  O   H1  H2  O   H1  H2  O   H1  H2  O   H1  H2  O   H1  H2  O   H1  
H2  O   H1  H2  O   H1  H2  O   H1  H2  O   H1  H2  O   H1  H2  O   H1  H2  O   
H1  H2  O   H1  H2  O   H1  H2  O   H1  H2  O   H1  H2  O   H1  H2  O   H1  H2  
O   H1  H2  O   H1  H2  O   H1  H2  O   H1  H2  O   H1  H2  O   H1  H2  O   H1  
H2  O   H1  H2  O   H1  H2  O   H1  H2  O   H1  H2  O   H1  H2  O   H1  H2  O   
H1  H2  O   H1  H2  O   H1  H2  O   H1  H2  O   H1  H2  O   H1  H2  O   H1  H2  
O   H1  H2  O   H1  H2  O   H1  H2  O   H1  H2  O   H1  H2  O   H1  H2  O   H1  
H2  O   H1  H2  O   H1  H2  O   H1  H2  O   H1  H2  O   H1  H2  O   H1  H2  O   
H1  H2  O   H1  H2  O   H1  H2  O   H1  H2  O   H1  H2  O   H1  H2  O   H1  H2  
O   H1  H2  O   H1  H2  O   H1  H2  O   H1  H2  O   H1  H2  O   H1  H2  O   H1  
H2  O   H1  H2  O   H1  H2  O   H1  H2  O   H1  H2  O   H1  H2  O   H1  H2  O   
H1  H2  O   H1  H2  O   H1  H2  O   H1  H2  O   H1  H2  O   H1  H2  O   H1  H2  
O   H1  H2  O   H1  H2  O   H1  H2  O   H1  H2  O   H1  H2  O   H1  H2  O   H1  
H2  O   H1  H2  O   H1  H2  O   H1  H2  O   H1  H2  O   H1  H2  O   H1  H2  O   
H1  H2  O   H1  H2  O   H1  H2  O   H1  H2  O   H1  H2  O   H1  H2  O   H1  H2  
O   H1  H2  O   H1  H2  O   H1  H2  O   H1  H2  O   H1  H2  O   H1  H2  O   H1  
H2  O   H1  H2  O   H1  H2  O   H1  H2  O   H1  H2  O   H1  H2  O   H1  H2  O   
H1  H2  O   H1  H2  O   H1  H2  O   H1  H2  O   H1  H2  O   H1  H2  O   H1  H2  
O   H1  H2  O   H1  H2  O   H1  H2  O   H1  H2  O   H1  H2  O   H1  H2  O   H1  
H2  O   H1  H2  O   H1  H2  O   H1  H2  O   H1  H2  O   H1  H2  O   H1  H2  O   
H1  H2  O   H1  H2  O   H1  H2  O   H1  H2  O   H1  H2  O   H1  H2  O   H1  H2  
O   H1  H2  O   H1  H2  O   H1  H2  O   H1  H2  O   H1  H2  O   H1  H2  O   H1  
H2  O   H1  H2  O   H1  H2  O   H1  H2  O   H1  H2  O   H1  H2  O   H1  H2  O   
H1  H2  O   H1  H2  O   H1  H2  O   H1  H2  O   H1  H2  O   H1  H2  O   H1  H2  
O   H1  H2  O   H1  H2  O   H1  H2  O   H1  H2  O   H1  H2  O   H1  H2  O   H1  
H2  O   H1  H2  O   H1  H2  O   H1  H2  O   H1  H2  O   H1  H2  O   H1  H2  O   
H1  H2  O   H1  H2  O   H1  H2  O   H1  H2  O   H1  H2  O   H1  H2  O   H1  H2  
O   H1  H2  O   H1  H2  O   H1  H2  O   H1  H2  O   H1  H2  O   H1  H2  O   H1  
H2  O   H1  H2  O   H1  H2  O   H1  H2  O   H1  H2  O   H1  H2  O   H1  H2  O   
H1  H2  O   H1  H2  O   H1  H2  O   H1  H2  O   H1  H2  O   H1  H2  O   H1  H2  
O   H1  H2  O   H1  H2  O   H1  H2  O   H1  H2  O   H1  H2  O   H1  H2  O   H1  
H2  O   H1  H2  O   H1  H2  O   H1  H2  O   H1  H2  O   H1  H2  O   H1  H2  O   
H1  H2  O   H1  H2  O   H1  H2  O   H1  H2  O   H1  H2  O   H1  H2  O   H1  H2  
O   H1  H2  O   H1  H2  O   H1  H2  O   H1  H2  O   H1  H2  O   H1  H2  O   H1  
H2  O   H1  H2  O   H1  H2  O   H1  H2  O   H1  H2  O   H1  H2  O   H1  H2  O   
H1  H2  O   H1  H2  O   H1  H2  O   H1  H2  O   H1  H2  O   H1  H2  O   H1  H2  
O   H1  H2  O   H1  H2  O   H1  H2  O   H1  H2  O   H1  H2  O   H1  H2  O   H1  
H2  O   H1  H2  O   H1  H2  O   H1  H2  O   H1  H2  O   H1  H2  O   H1  H2  O   
H1  H2  O   H1  H2  O   H1  H2  O   H1  H2  O   H1  H2  O   H1  H2  O   H1  H2  
O   H1  H2  O   H1  H2  O   H1  H2  O   H1  H2  O   H1  H2  O   H1  H2  O   H1  
H2  O   H1  H2  O   H1  H2  O   H1  H2  O   H1  H2  O   H1  H2  O   H1  H2  O   
H1  H2  O   H1  H2  O   H1  H2  O   H1  H2  O   H1  H2  O   H1  H2  O   H1  H2  
O   H1  H2  O   H1  H2  O   H1  H2  O   H1  H2  O   H1  H2  O   H1  H2  O   H1  
H2  O   H1  H2  O   H1  H2  O   H1  H2  O   H1  H2  O   H1  H2  O   H1  H2  O   
H1  H2  O   H1  H2  O   H1  H2  O   H1  H2  O   H1  H2  O   H1  H2  O   H1  H2  
O   H1  H2  O   H1  H2  O   H1  H2  O   H1  H2  O   H1  H2  O   H1  H2  O   H1  
H2  O   H1  H2  O   H1  H2  O   H1  H2  O   H1  H2  O   H1  H2  O   H1  H2  O   
H1  H2  O   H1  H2  O   H1  H2  O   H1  H2  O   H1  H2  O   H1  H2  O   H1  H2  
O   H1  H2  O   H1  H2  O   H1  H2  O   H1  H2  O   H1  H2  O   H1  H2  O   H1  
H2  O   H1  H2  O   H1  H2  O   H1  H2  O   H1  H2  O   H1  H2  O   H1  H2  O   
H1  H2  O   H1  H2  O   H1  H2  O   H1  H2  O   H1  H2  O   H1  H2  O   H1  H2  
O   H1  H2  O   H1  H2  O   H1  H2  O   H1  H2  O   H1  H2  O   H1  H2  O   H1  
H2  O   H1  H2  O   H1  H2  O   H1  H2  O   H1  H2  O   H1  H2  O   H1  H2  O   
H1  H2  O   H1  H2  O   H1  H2  O   H1  H2  O   H1  H2  O   H1  H2  O   H1  H2  
O   H1  H2  O   H1  H2  O   H1  H2  O   H1  H2  O   H1  H2  O   H1  H2  O   H1  
H2  O   H1  H2  O   H1  H2  O   H1  H2  O   H1  H2  O   H1  H2  O   H1  H2  O   
H1  H2  O   H1  H2  O   H1  H2  O   H1  H2  O   H1  H2  O   H1  H2  O   H1  H2  
O   H1  H2  O   H1  H2  O   H1  H2  O   H1  H2  O   H1  H2  O   H1  H2  O   H1  
H2  O   H1  H2  O   H1  H2  O   H1  H2  O   H1  H2  O   H1  H2  O   H1  H2  O   
H1  H2  O   H1  H2  O   H1  H2  O   H1  H2  O   H1  H2  O   H1  H2  O   H1  H2  
O   H1  H2  O   H1  H2  O   H1  H2  O   H1  H2  O   H1  H2  O   H1  H2  O   H1  
H2  O   H1  H2  O   H1  H2  O   H1  H2  O   H1  H2  O   H1  H2  O   H1  H2  O   
H1  H2  O   H1  H2  O   H1  H2  O   H1  H2  O   H1  H2  O   H1  H2  O   H1  H2  
O   H1  H2  O   H1  H2  O   H1  H2  O   H1  H2  O   H1  H2  O   H1  H2  O   H1  
H2  O   H1  H2  O   H1  H2  O   H1  H2  O   H1  H2  O   H1  H2  O   H1  H2  O   
H1  H2  O   H1  H2  O   H1  H2  O   H1  H2  O   H1  H2  O   H1  H2  O   H1  H2  
O   H1  H2  O   H1  H2  O   H1  H2  O   H1  H2  O   H1  H2  O   H1  H2  O   H1  
H2  O   H1  H2  O   H1  H2  O   H1  H2  O   H1  H2  O   H1  H2  O   H1  H2  O   
H1  H2  O   H1  H2  O   H1  H2  O   H1  H2  O   H1  H2  O   H1  H2  O   H1  H2  
O   H1  H2  O   H1  H2  O   H1  H2  O   H1  H2  O   H1  H2  O   H1  H2  O   H1  
H2  O   H1  H2  O   H1  H2  O   H1  H2  O   H1  H2  O   H1  H2  O   H1  H2  O   
H1  H2  O   H1  H2  O   H1  H2  O   H1  H2  O   H1  H2  O   H1  H2  O   H1  H2  
O   H1  H2  O   H1  H2  O   H1  H2  O   H1  H2  O   H1  H2  O   H1  H2  O   H1  
H2  O   H1  H2  O   H1  H2  O   H1  H2  O   H1  H2  O   H1  H2  O   H1  H2  O   
H1  H2  O   H1  H2  O   H1  H2  O   H1  H2  O   H1  H2  O   H1  H2  O   H1  H2  
O   H1  H2  O   H1  H2  O   H1  H2  O   H1  H2  O   H1  H2  O   H1  H2  O   H1  
H2  O   H1  H2  O   H1  H2  O   H1  H2  O   H1  H2  O   H1  H2  O   H1  H2  O   
H1  H2  O   H1  H2  O   H1  H2  O   H1  H2  O   H1  H2  O   H1  H2  O   H1  H2  
O   H1  H2  O   H1  H2  O   H1  H2  O   H1  H2  O   H1  H2  O   H1  H2  O   H1  
H2  O   H1  H2  O   H1  H2  O   H1  H2  O   H1  H2  O   H1  H2  O   H1  H2  O   
H1  H2  O   H1  H2  O   H1  H2  O   H1  H2  O   H1  H2  O   H1  H2  O   H1  H2  
O   H1  H2  O   H1  H2  O   H1  H2  O   H1  H2  O   H1  H2  O   H1  H2  O   H1  
H2  O   H1  H2  O   H1  H2  O   H1  H2  O   H1  H2  O   H1  H2  O   H1  H2  O   
H1  H2  O   H1  H2  O   H1  H2  O   H1  H2  O   H1  H2  O   H1  H2  O   H1  H2  
O   H1  H2  O   H1  H2  O   H1  H2  O   H1  H2  O   H1  H2  O   H1  H2  O   H1  
H2  O   H1  H2  O   H1  H2  O   H1  H2  O   H1  H2  O   H1  H2  O   H1  H2  O   
H1  H2  O   H1  H2  O   H1  H2  O   H1  H2  O   H1  H2  O   H1  H2  O   H1  H2  
O   H1  H2  O   H1  H2  O   H1  H2  O   H1  H2  O   H1  H2  O   H1  H2  O   H1  
H2  O   H1  H2  O   H1  H2  O   H1  H2  O   H1  H2  O   H1  H2  O   H1  H2  O   
H1  H2  O   H1  H2  O   H1  H2  O   H1  H2  O   H1  H2  O   H1  H2  O   H1  H2  
O   H1  H2  O   H1  H2  O   H1  H2  O   H1  H2  O   H1  H2  O   H1  H2  O   H1  
H2  O   H1  H2  O   H1  H2  O   H1  H2  O   H1  H2  O   H1  H2  O   H1  H2  O   
H1  H2  O   H1  H2  O   H1  H2  O   H1  H2  O   H1  H2  O   H1  H2  O   H1  H2  
O   H1  H2  O   H1  H2  O   H1  H2  O   H1  H2  O   H1  H2  O   H1  H2  O   H1  
H2  O   H1  H2  O   H1  H2  O   H1  H2  O   H1  H2  O   H1  H2  O   H1  H2  O   
H1  H2  O   H1  H2  O   H1  H2  O   H1  H2  O   H1  H2  O   H1  H2  O   H1  H2  
O   H1  H2  O   H1  H2  O   H1  H2  O   H1  H2  O   H1  H2  O   H1  H2  O   H1  
H2  O   H1  H2  O   H1  H2  O   H1  H2  O   H1  H2  O   H1  H2  O   H1  H2  O   
H1  H2  O   H1  H2  O   H1  H2  O   H1  H2  O   H1  H2  O   H1  H2  O   H1  H2  
O   H1  H2  O   H1  H2  O   H1  H2  O   H1  H2  O   H1  H2  O   H1  H2  O   H1  
H2  O   H1  H2  O   H1  H2  O   H1  H2  O   H1  H2  O   H1  H2  O   H1  H2  O   
H1  H2  O   H1  H2  O   H1  H2  O   H1  H2  O   H1  H2  O   H1  H2  O   H1  H2  
O   H1  H2  O   H1  H2  O   H1  H2  O   H1  H2  O   H1  H2  O   H1  H2  O   H1  
H2  O   H1  H2  O   H1  H2  O   H1  H2  O   H1  H2  O   H1  H2  O   H1  H2  O   
H1  H2  O   H1  H2  O   H1  H2  O   H1  H2  O   H1  H2  O   H1  H2  O   H1  H2  
O   H1  H2  O   H1  H2  O   H1  H2  O   H1  H2  O   H1  H2  O   H1  H2  O   H1  
H2  O   H1  H2  O   H1  H2  O   H1  H2  O   H1  H2  O   H1  H2  O   H1  H2  O   
H1  H2  O   H1  H2  O   H1  H2  O   H1  H2  O   H1  H2  O   H1  H2  O   H1  H2  
O   H1  H2  O   H1  H2  O   H1  H2  O   H1  H2  O   H1  H2  O   H1  H2  O   H1  
H2  O   H1  H2  O   H1  H2  O   H1  H2  O   H1  H2  O   H1  H2  O   H1  H2  O   
H1  H2  O   H1  H2  O   H1  H2  O   H1  H2  O   H1  H2  O   H1  H2  O   H1  H2  
O   H1  H2  O   H1  H2  O   H1  H2  O   H1  H2  O   H1  H2  O   H1  H2  O   H1  
H2  O   H1  H2  O   H1  H2  O   H1  H2  O   H1  H2  O   H1  H2  O   H1  H2  O   
H1  H2  O   H1  H2  O   H1  H2  O   H1  H2  O   H1  H2  O   H1  H2  O   H1  H2  
O   H1  H2  O   H1  H2  O   H1  H2  O   H1  H2  O   H1  H2  O   H1  H2  O   H1  
H2  O   H1  H2  O   H1  H2  O   H1  H2  O   H1  H2  O   H1  H2  O   H1  H2  O   
H1  H2  O   H1  H2  O   H1  H2  O   H1  H2  O   H1  H2  O   H1  H2  O   H1  H2  
O   H1  H2  O   H1  H2  O   H1  H2  O   H1  H2  O   H1  H2  O   H1  H2  O   H1  
H2  O   H1  H2  O   H1  H2  O   H1  H2  O   H1  H2  O   H1  H2  O   H1  H2  O   
H1  H2  O   H1  H2  O   H1  H2  O   H1  H2  O   H1  H2  O   H1  H2  O   H1  H2  
O   H1  H2  O   H1  H2  O   H1  H2  O   H1  H2  O   H1  H2  O   H1  H2  O   H1  
H2  O   H1  H2  O   H1  H2  O   H1  H2  O   H1  H2  O   H1  H2  O   H1  H2  O   
H1  H2  O   H1  H2  O   H1  H2  O   H1  H2  O   H1  H2  O   H1  H2  O   H1  H2  
O   H1  H2  O   H1  H2  O   H1  H2  O   H1  H2  O   H1  H2  O   H1  H2  O   H1  
H2  O   H1  H2  O   H1  H2  O   H1  H2  O   H1  H2  O   H1  H2  O   H1  H2  O   
H1  H2  O   H1  H2  O   H1  H2  O   H1  H2  O   H1  H2  O   H1  H2  O   H1  H2  
O   H1  H2  O   H1  H2  O   H1  H2  O   H1  H2  O   H1  H2  O   H1  H2  O   H1  
H2  O   H1  H2  O   H1  H2  O   H1  H2  O   H1  H2  O   H1  H2  O   H1  H2  O   
H1  H2  O   H1  H2  O   H1  H2  O   H1  H2  O   H1  H2  O   H1  H2  O   H1  H2  
O   H1  H2  O   H1  H2  O   H1  H2  O   H1  H2  O   H1  H2  O   H1  H2  O   H1  
H2  O   H1  H2  O   H1  H2  O   H1  H2  O   H1  H2  O   H1  H2  O   H1  H2  O   
H1  H2  O   H1  H2  O   H1  H2  O   H1  H2  O   H1  H2  O   H1  H2  O   H1  H2  
O   H1  H2  O   H1  H2  O   H1  H2  O   H1  H2  O   H1  H2  O   H1  H2  O   H1  
H2  O   H1  H2  O   H1  H2  O   H1  H2  O   H1  H2  O   H1  H2  O   H1  H2  O   
H1  H2  O   H1  H2  O   H1  H2  O   H1  H2  O   H1  H2  O   H1  H2  O   H1  H2  
O   H1  H2  O   H1  H2  O   H1  H2  O   H1  H2  O   H1  H2  O   H1  H2  O   H1  
H2  O   H1  H2  O   H1  H2  O   H1  H2  O   H1  H2  O   H1  H2  O   H1  H2  O   
H1  H2  O   H1  H2  O   H1  H2  O   H1  H2  O   H1  H2  O   H1  H2  O   H1  H2  
O   H1  H2  O   H1  H2  O   H1  H2  O   H1  H2  O   H1  H2  O   H1  H2  O   H1  
H2  O   H1  H2  O   H1  H2  O   H1  H2  O   H1  H2  O   H1  H2  O   H1  H2  O   
H1  H2  O   H1  H2  O   H1  H2  O   H1  H2  O   H1  H2  O   H1  H2  O   H1  H2  
O   H1  H2  O   H1  H2  O   H1  H2  O   H1  H2  O   H1  H2  O   H1  H2  O   H1  
H2  O   H1  H2  O   H1  H2  O   H1  H2  O   H1  H2  O   H1  H2  O   H1  H2  O   
H1  H2  O   H1  H2  O   H1  H2  O   H1  H2  O   H1  H2  O   H1  H2  O   H1  H2  
O   H1  H2  O   H1  H2  O   H1  H2  O   H1  H2  O   H1  H2  O   H1  H2  O   H1  
H2  O   H1  H2  O   H1  H2  O   H1  H2  O   H1  H2  O   H1  H2  O   H1  H2  O   
H1  H2  O   H1  H2  O   H1  H2  O   H1  H2  O   H1  H2  O   H1  H2  O   H1  H2  
O   H1  H2  O   H1  H2  O   H1  H2  O   H1  H2  O   H1  H2  O   H1  H2  O   H1  
H2  O   H1  H2  O   H1  H2  O   H1  H2  O   H1  H2  O   H1  H2  O   H1  H2  O   
H1  H2  O   H1  H2  O   H1  H2  O   H1  H2  O   H1  H2  O   H1  H2  O   H1  H2  
O   H1  H2  O   H1  H2  O   H1  H2  O   H1  H2  O   H1  H2  O   H1  H2  O   H1  
H2  O   H1  H2  O   H1  H2  O   H1  H2  O   H1  H2  O   H1  H2  O   H1  H2  O   
H1  H2  O   H1  H2  O   H1  H2  O   H1  H2  O   H1  H2  O   H1  H2  O   H1  H2  
O   H1  H2  O   H1  H2  O   H1  H2  O   H1  H2  O   H1  H2  O   H1  H2  O   H1  
H2  O   H1  H2  O   H1  H2  O   H1  H2  O   H1  H2  O   H1  H2  O   H1  H2  O   
H1  H2  O   H1  H2  O   H1  H2  O   H1  H2  O   H1  H2  O   H1  H2  O   H1  H2  
O   H1  H2  O   H1  H2  O   H1  H2  O   H1  H2  O   H1  H2  O   H1  H2  O   H1  
H2  O   H1  H2  O   H1  H2  O   H1  H2  O   H1  H2  O   H1  H2  O   H1  H2  O   
H1  H2  O   H1  H2  O   H1  H2  O   H1  H2  O   H1  H2  O   H1  H2  O   H1  H2  
O   H1  H2  O   H1  H2  O   H1  H2  O   H1  H2  O   H1  H2  O   H1  H2  O   H1  
H2  O   H1  H2  O   H1  H2  O   H1  H2  O   H1  H2  O   H1  H2  O   H1  H2  O   
H1  H2  O   H1  H2  O   H1  H2  O   H1  H2  O   H1  H2  O   H1  H2  O   H1  H2  
O   H1  H2  O   H1  H2  O   H1  H2  O   H1  H2  O   H1  H2  O   H1  H2  O   H1  
H2  O   H1  H2  O   H1  H2  O   H1  H2  O   H1  H2  O   H1  H2  O   H1  H2  O   
H1  H2  O   H1  H2  O   H1  H2  O   H1  H2  O   H1  H2  O   H1  H2  O   H1  H2  
O   H1  H2  O   H1  H2  O   H1  H2  O   H1  H2  O   H1  H2  O   H1  H2  O   H1  
H2  O   H1  H2  O   H1  H2  O   H1  H2  O   H1  H2  O   H1  H2  O   H1  H2  O   
H1  H2  O   H1  H2  O   H1  H2  O   H1  H2  O   H1  H2  O   H1  H2  O   H1  H2  
O   H1  H2  O   H1  H2  O   H1  H2  O   H1  H2  O   H1  H2  O   H1  H2  O   H1  
H2  O   H1  H2  O   H1  H2  O   H1  H2  O   H1  H2  O   H1  H2  O   H1  H2  O   
H1  H2  O   H1  H2  O   H1  H2  O   H1  H2  O   H1  H2  O   H1  H2  O   H1  H2  
O   H1  H2  O   H1  H2  O   H1  H2  O   H1  H2  O   H1  H2  O   H1  H2  O   H1  
H2  O   H1  H2  O   H1  H2  O   H1  H2  O   H1  H2  O   H1  H2  O   H1  H2  O   
H1  H2  O   H1  H2  O   H1  H2  O   H1  H2  O   H1  H2  O   H1  H2  O   H1  H2  
O   H1  H2  O   H1  H2  O   H1  H2  O   H1  H2  O   H1  H2  O   H1  H2  O   H1  
H2  O   H1  H2  O   H1  H2  O   H1  H2  O   H1  H2  O   H1  H2  O   H1  H2  O   
H1  H2  O   H1  H2  O   H1  H2  O   H1  H2  O   H1  H2  O   H1  H2  O   H1  H2  
O   H1  H2  O   H1  H2  O   H1  H2  O   H1  H2  O   H1  H2  O   H1  H2  O   H1  
H2  O   H1  H2  O   H1  H2  O   H1  H2  O   H1  H2  O   H1  H2  O   H1  H2  O   
H1  H2  O   H1  H2  O   H1  H2  O   H1  H2  O   H1  H2  O   H1  H2  O   H1  H2  
O   H1  H2  O   H1  H2  O   H1  H2  O   H1  H2  O   H1  H2  O   H1  H2  O   H1  
H2  O   H1  H2  O   H1  H2  O   H1  H2  O   H1  H2  O   H1  H2  O   H1  H2  O   
H1  H2  O   H1  H2  O   H1  H2  O   H1  H2  O   H1  H2  O   H1  H2  O   H1  H2  
O   H1  H2  O   H1  H2  O   H1  H2  O   H1  H2  O   H1  H2  O   H1  H2  O   H1  
H2  O   H1  H2  O   H1  H2  O   H1  H2  O   H1  H2  O   H1  H2  O   H1  H2  O   
H1  H2  O   H1  H2  O   H1  H2  O   H1  H2  O   H1  H2  O   H1  H2  O   H1  H2  
O   H1  H2  O   H1  H2  O   H1  H2  O   H1  H2  O   H1  H2  O   H1  H2  O   H1  
H2  O   H1  H2  O   H1  H2  O   H1  H2  O   H1  H2  O   H1  H2  O   H1  H2  O   
H1  H2  O   H1  H2  O   H1  H2  O   H1  H2  O   H1  H2  O   H1  H2  O   H1  H2  
O   H1  H2  O   H1  H2  O   H1  H2  O   H1  H2  O   H1  H2  O   H1  H2  O   H1  
H2  O   H1  H2  O   H1  H2  O   H1  H2  O   H1  H2  O   H1  H2  O   H1  H2  O   
H1  H2  O   H1  H2  O   H1  H2  O   H1  H2  O   H1  H2  O   H1  H2  O   H1  H2  
O   H1  H2  O   H1  H2  O   H1  H2  O   H1  H2  O   H1  H2  O   H1  H2  O   H1  
H2  O   H1  H2  O   H1  H2  O   H1  H2  O   H1  H2  O   H1  H2  O   H1  H2  O   
H1  H2  O   H1  H2  O   H1  H2  O   H1  H2  O   H1  H2  O   H1  H2  O   H1  H2  
O   H1  H2  O   H1  H2  O   H1  H2  O   H1  H2  O   H1  H2  O   H1  H2  O   H1  
H2  O   H1  H2  O   H1  H2  O   H1  H2  O   H1  H2  O   H1  H2  O   H1  H2  O   
H1  H2  O   H1  H2  O   H1  H2  O   H1  H2  O   H1  H2  O   H1  H2  O   H1  H2  
O   H1  H2  O   H1  H2  O   H1  H2  O   H1  H2  O   H1  H2  O   H1  H2  O   H1  
H2  O   H1  H2  O   H1  H2  O   H1  H2  O   H1  H2  O   H1  H2  O   H1  H2  O   
H1  H2  O   H1  H2  O   H1  H2  O   H1  H2  O   H1  H2  O   H1  H2  O   H1  H2  
O   H1  H2  O   H1  H2  O   H1  H2  O   H1  H2  O   H1  H2  O   H1  H2  O   H1  
H2  O   H1  H2  O   H1  H2  O   H1  H2  O   H1  H2  O   H1  H2  O   H1  H2  O   
H1  H2  O   H1  H2  O   H1  H2  O   H1  H2  O   H1  H2  O   H1  H2  O   H1  H2  
O   H1  H2  O   H1  H2  O   H1  H2  O   H1  H2  O   H1  H2  O   H1  H2  O   H1  
H2  O   H1  H2  O   H1  H2  O   H1  H2  O   H1  H2  O   H1  H2  O   H1  H2  O   
H1  H2  O   H1  H2  O   H1  H2  O   H1  H2  O   H1  H2  O   H1  H2  O   H1  H2  
O   H1  H2  O   H1  H2  O   H1  H2  O   H1  H2  O   H1  H2  O   H1  H2  O   H1  
H2  O   H1  H2  O   H1  H2  O   H1  H2  O   H1  H2  O   H1  H2  O   H1  H2  O   
H1  H2  O   H1  H2  O   H1  H2  O   H1  H2  O   H1  H2  O   H1  H2  O   H1  H2  
O   H1  H2  O   H1  H2  O   H1  H2  O   H1  H2  O   H1  H2  O   H1  H2  O   H1  
H2  O   H1  H2  O   H1  H2  O   H1  H2  O   H1  H2  O   H1  H2  O   H1  H2  O   
H1  H2  O   H1  H2  O   H1  H2  O   H1  H2  O   H1  H2  O   H1  H2  O   H1  H2  
O   H1  H2  O   H1  H2  O   H1  H2  O   H1  H2  O   H1  H2  O   H1  H2  O   H1  
H2  O   H1  H2  O   H1  H2  O   H1  H2  O   H1  H2  O   H1  H2  O   H1  H2  O   
H1  H2  O   H1  H2  O   H1  H2  O   H1  H2  O   H1  H2  O   H1  H2  O   H1  H2  
O   H1  H2  O   H1  H2  O   H1  H2  O   H1  H2  O   H1  H2  O   H1  H2  O   H1  
H2  O   H1  H2  O   H1  H2  O   H1  H2  O   H1  H2  O   H1  H2  O   H1  H2  O   
H1  H2  O   H1  H2  O   H1  H2  O   H1  H2  O   H1  H2  O   H1  H2  O   H1  H2  
O   H1  H2  O   H1  H2  O   H1  H2  O   H1  H2  O   H1  H2  O   H1  H2  O   H1  
H2  O   H1  H2  O   H1  H2  O   H1  H2  O   H1  H2  O   H1  H2  O   H1  H2  O   
H1  H2  O   H1  H2  O   H1  H2  O   H1  H2  O   H1  H2  O   H1  H2  O   H1  H2  
O   H1  H2  O   H1  H2  O   H1  H2  O   H1  H2  O   H1  H2  O   H1  H2  O   H1  
H2  O   H1  H2  O   H1  H2  O   H1  H2  O   H1  H2  O   H1  H2  O   H1  H2  O   
H1  H2  O   H1  H2  O   H1  H2  O   H1  H2  O   H1  H2  O   H1  H2  O   H1  H2  
O   H1  H2  O   H1  H2  O   H1  H2  O   H1  H2  O   H1  H2  O   H1  H2  O   H1  
H2  O   H1  H2  O   H1  H2  O   H1  H2  O   H1  H2  O   H1  H2  O   H1  H2  O   
H1  H2  O   H1  H2  O   H1  H2  O   H1  H2  O   H1  H2  O   H1  H2  O   H1  H2  
O   H1  H2  O   H1  H2  O   H1  H2  O   H1  H2  O   H1  H2  O   H1  H2  O   H1  
H2  O   H1  H2  O   H1  H2  O   H1  H2  O   H1  H2  O   H1  H2  O   H1  H2  O   
H1  H2  O   H1  H2  O   H1  H2  O   H1  H2  O   H1  H2  O   H1  H2  O   H1  H2  
O   H1  H2  O   H1  H2  O   H1  H2  O   H1  H2  O   H1  H2  O   H1  H2  O   H1  
H2  O   H1  H2  O   H1  H2  O   H1  H2  O   H1  H2  O   H1  H2  O   H1  H2  O   
H1  H2  O   H1  H2  O   H1  H2  O   H1  H2  O   H1  H2  O   H1  H2  O   H1  H2  
O   H1  H2  O   H1  H2  O   H1  H2  O   H1  H2  O   H1  H2  O   H1  H2  O   H1  
H2  O   H1  H2  O   H1  H2  O   H1  H2  O   H1  H2  O   H1  H2  O   H1  H2  O   
H1  H2  O   H1  H2  O   H1  H2  O   H1  H2  O   H1  H2  O   H1  H2  O   H1  H2  
O   H1  H2  O   H1  H2  O   H1  H2  O   H1  H2  O   H1  H2  O   H1  H2  O   H1  
H2  O   H1  H2  O   H1  H2  O   H1  H2  O   H1  H2  O   H1  H2  O   H1  H2  O   
H1  H2  O   H1  H2  O   H1  H2  O   H1  H2  O   H1  H2  O   H1  H2  O   H1  H2  
O   H1  H2  O   H1  H2  O   H1  H2  O   H1  H2  O   H1  H2  O   H1  H2  O   H1  
H2  O   H1  H2  O   H1  H2  O   H1  H2  O   H1  H2  O   H1  H2  O   H1  H2  O   
H1  H2  O   H1  H2  O   H1  H2  O   H1  H2  O   H1  H2  O   H1  H2  O   H1  H2  
O   H1  H2  O   H1  H2  O   H1  H2  O   H1  H2  O   H1  H2  O   H1  H2  O   H1  
H2  O   H1  H2  O   H1  H2  O   H1  H2  O   H1  H2  O   H1  H2  O   H1  H2  O   
H1  H2  O   H1  H2  O   H1  H2  O   H1  H2  O   H1  H2  O   H1  H2  O   H1  H2  
O   H1  H2  O   H1  H2  O   H1  H2  O   H1  H2  O   H1  H2  O   H1  H2  O   H1  
H2  O   H1  H2  O   H1  H2  O   H1  H2  O   H1  H2  O   H1  H2  O   H1  H2  O   
H1  H2  O   H1  H2  O   H1  H2  O   H1  H2  O   H1  H2  O   H1  H2  O   H1  H2  
O   H1  H2  O   H1  H2  O   H1  H2  O   H1  H2  O   H1  H2  O   H1  H2  O   H1  
H2  O   H1  H2  O   H1  H2  O   H1  H2  O   H1  H2  O   H1  H2  O   H1  H2  O   
H1  H2  O   H1  H2  O   H1  H2  O   H1  H2  O   H1  H2  O   H1  H2  O   H1  H2  
O   H1  H2  O   H1  H2  O   H1  H2  O   H1  H2  O   H1  H2  O   H1  H2  O   H1  
H2  O   H1  H2  O   H1  H2  O   H1  H2  O   H1  H2  O   H1  H2  O   H1  H2  O   
H1  H2  O   H1  H2  O   H1  H2  O   H1  H2  O   H1  H2  O   H1  H2  O   H1  H2  
O   H1  H2  O   H1  H2  O   H1  H2  O   H1  H2  O   H1  H2  O   H1  H2  O   H1  
H2  O   H1  H2  O   H1  H2  O   H1  H2  O   H1  H2  O   H1  H2  O   H1  H2  O   
H1  H2  O   H1  H2  O   H1  H2  O   H1  H2  O   H1  H2  O   H1  H2  O   H1  H2  
O   H1  H2  O   H1  H2  O   H1  H2  O   H1  H2  O   H1  H2  O   H1  H2  O   H1  
H2  O   H1  H2  O   H1  H2  O   H1  H2  O   H1  H2  O   H1  H2  O   H1  H2  O   
H1  H2  O   H1  H2  O   H1  H2  O   H1  H2  O   H1  H2  O   H1  H2  O   H1  H2  
O   H1  H2  O   H1  H2  O   H1  H2  O   H1  H2  O   H1  H2  O   H1  H2  O   H1  
H2  O   H1  H2  O   H1  H2  O   H1  H2  O   H1  H2  O   H1  H2  O   H1  H2  O   
H1  H2  O   H1  H2  O   H1  H2  O   H1  H2  O   H1  H2  O   H1  H2  O   H1  H2  
O   H1  H2  O   H1  H2  O   H1  H2  O   H1  H2  O   H1  H2  O   H1  H2  O   H1  
H2  O   H1  H2  O   H1  H2  O   H1  H2  O   H1  H2  O   H1  H2  O   H1  H2  O   
H1  H2  O   H1  H2  O   H1  H2  O   H1  H2  O   H1  H2  O   H1  H2  O   H1  H2  
O   H1  H2  O   H1  H2  O   H1  H2  O   H1  H2  O   H1  H2  O   H1  H2  O   H1  
H2  O   H1  H2  O   H1  H2  O   H1  H2  O   H1  H2  O   H1  H2  O   H1  H2  O   
H1  H2  O   H1  H2  O   H1  H2  O   H1  H2  O   H1  H2  O   H1  H2  O   H1  H2  
O   H1  H2  O   H1  H2  O   H1  H2  O   H1  H2  O   H1  H2  O   H1  H2  O   H1  
H2  O   H1  H2  O   H1  H2  O   H1  H2  O   H1  H2  O   H1  H2  O   H1  H2  O   
H1  H2  O   H1  H2  O   H1  H2  O   H1  H2  O   H1  H2  O   H1  H2  O   H1  H2  
O   H1  H2  O   H1  H2  O   H1  H2  O   H1  H2  O   H1  H2  O   H1  H2  O   H1  
H2  O   H1  H2  O   H1  H2  O   H1  H2  O   H1  H2  O   H1  H2  O   H1  H2  O   
H1  H2  O   H1  H2  O   H1  H2  O   H1  H2  O   H1  H2  O   H1  H2  O   H1  H2  
O   H1  H2  O   H1  H2  O   H1  H2  O   H1  H2  O   H1  H2  O   H1  H2  O   H1  
H2  O   H1  H2  O   H1  H2  O   H1  H2  O   H1  H2  O   H1  H2  O   H1  H2  O   
H1  H2  O   H1  H2  O   H1  H2  O   H1  H2  O   H1  H2  O   H1  H2  O   H1  H2  
O   H1  H2  O   H1  H2  O   H1  H2  O   H1  H2  O   H1  H2  O   H1  H2  O   H1  
H2  O   H1  H2  O   H1  H2  O   H1  H2  O   H1  H2  O   H1  H2  O   H1  H2  O   
H1  H2  O   H1  H2  O   H1  H2  O   H1  H2  O   H1  H2  O   H1  H2  O   H1  H2  
O   H1  H2  O   H1  H2  O   H1  H2  O   H1  H2  O   H1  H2  O   H1  H2  O   H1  
H2  O   H1  H2  O   H1  H2  O   H1  H2  O   H1  H2  O   H1  H2  O   H1  H2  O   
H1  H2  O   H1  H2  O   H1  H2  O   H1  H2  O   H1  H2  O   H1  H2  O   H1  H2  
O   H1  H2  O   H1  H2  O   H1  H2  O   H1  H2  O   H1  H2  O   H1  H2  O   H1  
H2  O   H1  H2  O   H1  H2  O   H1  H2  O   H1  H2  O   H1  H2  O   H1  H2  O   
H1  H2  O   H1  H2  O   H1  H2  O   H1  H2  O   H1  H2  O   H1  H2  O   H1  H2  
O   H1  H2  O   H1  H2  O   H1  H2  O   H1  H2  O   H1  H2  O   H1  H2  O   H1  
H2  O   H1  H2  O   H1  H2  O   H1  H2  O   H1  H2  O   H1  H2  O   H1  H2  O   
H1  H2  O   H1  H2  O   H1  H2  O   H1  H2  O   H1  H2  O   H1  H2  O   H1  H2  
O   H1  H2  O   H1  H2  O   H1  H2  O   H1  H2  O   H1  H2  O   H1  H2  O   H1  
H2  O   H1  H2  O   H1  H2  O   H1  H2  O   H1  H2  O   H1  H2  O   H1  H2  O   
H1  H2  O   H1  H2  O   H1  H2  O   H1  H2  O   H1  H2  O   H1  H2  O   H1  H2  
O   H1  H2  O   H1  H2  O   H1  H2  O   H1  H2  O   H1  H2  O   H1  H2  O   H1  
H2  O   H1  H2  O   H1  H2  O   H1  H2  O   H1  H2  O   H1  H2  O   H1  H2  O   
H1  H2  O   H1  H2  O   H1  H2  O   H1  H2  O   H1  H2  O   H1  H2  O   H1  H2  
O   H1  H2  O   H1  H2  O   H1  H2  O   H1  H2  O   H1  H2  O   H1  H2  O   H1  
H2  O   H1  H2  O   H1  H2  O   H1  H2  O   H1  H2  O   H1  H2  O   H1  H2  O   
H1  H2  O   H1  H2  O   H1  H2  O   H1  H2  O   H1  H2  O   H1  H2  O   H1  H2  
O   H1  H2  O   H1  H2  O   H1  H2  O   H1  H2  O   H1  H2  O   H1  H2  O   H1  
H2  O   H1  H2  O   H1  H2  O   H1  H2  O   H1  H2  O   H1  H2  O   H1  H2  O   
H1  H2  O   H1  H2  O   H1  H2  O   H1  H2  O   H1  H2  O   H1  H2  O   H1  H2  
O   H1  H2  O   H1  H2  O   H1  H2  O   H1  H2  O   H1  H2  O   H1  H2  O   H1  
H2  O   H1  H2  O   H1  H2  O   H1  H2  O   H1  H2  O   H1  H2  O   H1  H2  O   
H1  H2  O   H1  H2  O   H1  H2  O   H1  H2  O   H1  H2  O   H1  H2  O   H1  H2  
O   H1  H2  O   H1  H2  O   H1  H2  O   H1  H2  O   H1  H2  O   H1  H2  O   H1  
H2  O   H1  H2  O   H1  H2  O   H1  H2  O   H1  H2  O   H1  H2  O   H1  H2  O   
H1  H2  O   H1  H2  O   H1  H2  O   H1  H2  O   H1  H2  O   H1  H2  O   H1  H2  
O   H1  H2  O   H1  H2  O   H1  H2  O   H1  H2  O   H1  H2  O   H1  H2  O   H1  
H2  O   H1  H2  O   H1  H2  O   H1  H2  O   H1  H2  O   H1  H2  O   H1  H2  O   
H1  H2  O   H1  H2  O   H1  H2  O   H1  H2  O   H1  H2  O   H1  H2  O   H1  H2  
O   H1  H2  O   H1  H2  O   H1  H2  O   H1  H2  O   H1  H2  O   H1  H2  O   H1  
H2  O   H1  H2  O   H1  H2  O   H1  H2  O   H1  H2  O   H1  H2  O   H1  H2  O   
H1  H2  O   H1  H2  O   H1  H2  O   H1  H2  O   H1  H2  O   H1  H2  O   H1  H2  
O   H1  H2  O   H1  H2  O   H1  H2  O   H1  H2  O   H1  H2  O   H1  H2  O   H1  
H2  O   H1  H2  O   H1  H2  O   H1  H2  O   H1  H2  O   H1  H2  O   H1  H2  O   
H1  H2  O   H1  H2  O   H1  H2  O   H1  H2  O   H1  H2  O   H1  H2  O   H1  H2  
O   H1  H2  O   H1  H2  O   H1  H2  O   H1  H2  O   H1  H2  O   H1  H2  O   H1  
H2  O   H1  H2  O   H1  H2  O   H1  H2  O   H1  H2  O   H1  H2  O   H1  H2  O   
H1  H2  O   H1  H2  O   H1  H2  O   H1  H2  O   H1  H2  O   H1  H2  O   H1  H2  
O   H1  H2  O   H1  H2  O   H1  H2  O   H1  H2  O   H1  H2  O   H1  H2  O   H1  
H2  O   H1  H2  O   H1  H2  O   H1  H2  O   H1  H2  O   H1  H2  O   H1  H2  O   
H1  H2  O   H1  H2  O   H1  H2  O   H1  H2  O   H1  H2  O   H1  H2  O   H1  H2  
O   H1  H2  O   H1  H2  O   H1  H2  O   H1  H2  O   H1  H2  O   H1  H2  O   H1  
H2  O   H1  H2  O   H1  H2  O   H1  H2  O   H1  H2  O   H1  H2  O   H1  H2  O   
H1  H2  O   H1  H2  O   H1  H2  O   H1  H2  O   H1  H2  O   H1  H2  O   H1  H2  
O   H1  H2  O   H1  H2  O   H1  H2  O   H1  H2  O   H1  H2  O   H1  H2  O   H1  
H2  O   H1  H2  O   H1  H2  O   H1  H2  O   H1  H2  O   H1  H2  O   H1  H2  O   
H1  H2  O   H1  H2  O   H1  H2  O   H1  H2  O   H1  H2  O   H1  H2  O   H1  H2  
O   H1  H2  O   H1  H2  O   H1  H2  O   H1  H2  O   H1  H2  O   H1  H2  O   H1  
H2  O   H1  H2  O   H1  H2  O   H1  H2  O   H1  H2  O   H1  H2  O   H1  H2  O   
H1  H2  O   H1  H2  O   H1  H2  O   H1  H2  O   H1  H2  O   H1  H2  O   H1  H2  
O   H1  H2  O   H1  H2  O   H1  H2  O   H1  H2  O   H1  H2  O   H1  H2  O   H1  
H2  O   H1  H2  O   H1  H2  O   H1  H2  O   H1  H2  O   H1  H2  O   H1  H2  O   
H1  H2  O   H1  H2  O   H1  H2  O   H1  H2  O   H1  H2  O   H1  H2  O   H1  H2  
O   H1  H2  O   H1  H2  O   H1  H2  O   H1  H2  O   H1  H2  O   H1  H2  O   H1  
H2  O   H1  H2  O   H1  H2  O   H1  H2  O   H1  H2  O   H1  H2  O   H1  H2  O   
H1  H2  O   H1  H2  O   H1  H2  O   H1  H2  O   H1  H2  O   H1  H2  O   H1  H2  
O   H1  H2  O   H1  H2  O   H1  H2  O   H1  H2  O   H1  H2  O   H1  H2  O   H1  
H2  O   H1  H2  O   H1  H2  O   H1  H2  O   H1  H2  O   H1  H2  O   H1  H2  O   
H1  H2  O   H1  H2  O   H1  H2  O   H1  H2  O   H1  H2  O   H1  H2  O   H1  H2  
O   H1  H2  O   H1  H2  O   H1  H2  O   H1  H2  O   H1  H2  O   H1  H2  O   H1  
H2  O   H1  H2  O   H1  H2  O   H1  H2  O   H1  H2  O   H1  H2  O   H1  H2  O   
H1  H2  O   H1  H2  O   H1  H2  O   H1  H2  O   H1  H2  O   H1  H2  O   H1  H2  
O   H1  H2  O   H1  H2  O   H1  H2  O   H1  H2  O   H1  H2  O   H1  H2  O   H1  
H2  O   H1  H2  O   H1  H2  O   H1  H2  O   H1  H2  O   H1  H2  O   H1  H2  O   
H1  H2  O   H1  H2  O   H1  H2  O   H1  H2  O   H1  H2  O   H1  H2  O   H1  H2  
O   H1  H2  O   H1  H2  O   H1  H2  O   H1  H2  O   H1  H2  O   H1  H2  O   H1  
H2  O   H1  H2  O   H1  H2  O   H1  H2  O   H1  H2  O   H1  H2  O   H1  H2  O   
H1  H2  O   H1  H2  O   H1  H2  O   H1  H2  O   H1  H2  O   H1  H2  O   H1  H2  
O   H1  H2  O   H1  H2  O   H1  H2  O   H1  H2  O   H1  H2  O   H1  H2  O   H1  
H2  O   H1  H2  O   H1  H2  O   H1  H2  O   H1  H2  O   H1  H2  O   H1  H2  O   
H1  H2  O   H1  H2  O   H1  H2  O   H1  H2  O   H1  H2  O   H1  H2  O   H1  H2  
O   H1  H2  O   H1  H2  O   H1  H2  O   H1  H2  O   H1  H2  O   H1  H2  O   H1  
H2  O   H1  H2  O   H1  H2  O   H1  H2  O   H1  H2  O   H1  H2  O   H1  H2  O   
H1  H2  O   H1  H2  O   H1  H2  O   H1  H2  O   H1  H2  O   H1  H2  O   H1  H2  
O   H1  H2  O   H1  H2  O   H1  H2  O   H1  H2  O   H1  H2  O   H1  H2  O   H1  
H2  O   H1  H2  O   H1  H2  O   H1  H2  O   H1  H2  O   H1  H2  O   H1  H2  O   
H1  H2  O   H1  H2  O   H1  H2  O   H1  H2  O   H1  H2  O   H1  H2  O   H1  H2  
O   H1  H2  O   H1  H2  O   H1  H2  O   H1  H2  O   H1  H2  O   H1  H2  O   H1  
H2  O   H1  H2  O   H1  H2  O   H1  H2  O   H1  H2  O   H1  H2  O   H1  H2  O   
H1  H2  O   H1  H2  O   H1  H2  O   H1  H2  O   H1  H2  O   H1  H2  O   H1  H2  
O   H1  H2  O   H1  H2  O   H1  H2  O   H1  H2  O   H1  H2  O   H1  H2  O   H1  
H2  O   H1  H2  O   H1  H2  O   H1  H2  O   H1  H2  O   H1  H2  O   H1  H2  O   
H1  H2  O   H1  H2  O   H1  H2  O   H1  H2  O   H1  H2  O   H1  H2  O   H1  H2  
O   H1  H2  O   H1  H2  O   H1  H2  O   H1  H2  O   H1  H2  O   H1  H2  O   H1  
H2  O   H1  H2  O   H1  H2  O   H1  H2  O   H1  H2  O   H1  H2  O   H1  H2  O   
H1  H2  O   H1  H2  O   H1  H2  O   H1  H2  O   H1  H2  O   H1  H2  O   H1  H2  
O   H1  H2  O   H1  H2  O   H1  H2  O   H1  H2  O   H1  H2  O   H1  H2  O   H1  
H2  O   H1  H2  O   H1  H2  O   H1  H2  O   H1  H2  O   H1  H2  O   H1  H2  O   
H1  H2  O   H1  H2  O   H1  H2  O   H1  H2  O   H1  H2  O   H1  H2  O   H1  H2  
O   H1  H2  O   H1  H2  O   H1  H2  O   H1  H2  O   H1  H2  O   H1  H2  O   H1  
H2  O   H1  H2  O   H1  H2  O   H1  H2  O   H1  H2  O   H1  H2  O   H1  H2  O   
H1  H2  O   H1  H2  O   H1  H2  O   H1  H2  O   H1  H2  O   H1  H2  O   H1  H2  
O   H1  H2  O   H1  H2  O   H1  H2  O   H1  H2  O   H1  H2  O   H1  H2  O   H1  
H2  O   H1  H2  O   H1  H2  O   H1  H2  O   H1  H2  O   H1  H2  O   H1  H2  O   
H1  H2  O   H1  H2  O   H1  H2  O   H1  H2  O   H1  H2  O   H1  H2  O   H1  H2  
O   H1  H2  O   H1  H2  O   H1  H2  O   H1  H2  O   H1  H2  O   H1  H2  O   H1  
H2  O   H1  H2  O   H1  H2  O   H1  H2  O   H1  H2  O   H1  H2  O   H1  H2  O   
H1  H2  O   H1  H2  O   H1  H2  O   H1  H2  O   H1  H2  O   H1  H2  O   H1  H2  
O   H1  H2  O   H1  H2  O   H1  H2  O   H1  H2  O   H1  H2  O   H1  H2  O   H1  
H2  O   H1  H2  O   H1  H2  O   H1  H2  O   H1  H2  O   H1  H2  O   H1  H2  O   
H1  H2  O   H1  H2  O   H1  H2  O   H1  H2  O   H1  H2  O   H1  H2  O   H1  H2  
O   H1  H2  O   H1  H2  O   H1  H2  O   H1  H2  O   H1  H2  O   H1  H2  O   H1  
H2  O   H1  H2  O   H1  H2  O   H1  H2  O   H1  H2  O   H1  H2  O   H1  H2  O   
H1  H2  O   H1  H2  O   H1  H2  O   H1  H2  O   H1  H2  O   H1  H2  O   H1  H2  
O   H1  H2  O   H1  H2  O   H1  H2  O   H1  H2  O   H1  H2  O   H1  H2  O   H1  
H2  O   H1  H2  O   H1  H2  O   H1  H2  O   H1  H2  O   H1  H2  O   H1  H2  O   
H1  H2  O   H1  H2  O   H1  H2  O   H1  H2  O   H1  H2  O   H1  H2  O   H1  H2  
O   H1  H2  O   H1  H2  O   H1  H2  O   H1  H2  O   H1  H2  O   H1  H2  O   H1  
H2  O   H1  H2  O   H1  H2  O   H1  H2  O   H1  H2  O   H1  H2  O   H1  H2  O   
H1  H2  O   H1  H2  O   H1  H2  O   H1  H2  O   H1  H2  O   H1  H2  O   H1  H2  
O   H1  H2  O   H1  H2  O   H1  H2  O   H1  H2  O   H1  H2  O   H1  H2  O   H1  
H2  O   H1  H2  O   H1  H2  O   H1  H2  O   H1  H2  O   H1  H2  O   H1  H2  O   
H1  H2  O   H1  H2  O   H1  H2  O   H1  H2  O   H1  H2  O   H1  H2  O   H1  H2  
O   H1  H2  O   H1  H2  O   H1  H2  O   H1  H2  O   H1  H2  O   H1  H2  O   H1  
H2  O   H1  H2  O   H1  H2  O   H1  H2  O   H1  H2  O   H1  H2  O   H1  H2  O   
H1  H2  O   H1  H2  O   H1  H2  O   H1  H2  O   H1  H2  O   H1  H2  O   H1  H2  
O   H1  H2  O   H1  H2  O   H1  H2  O   H1  H2  O   H1  H2  O   H1  H2  O   H1  
H2  O   H1  H2  O   H1  H2  O   H1  H2  O   H1  H2  O   H1  H2  O   H1  H2  O   
H1  H2  O   H1  H2  O   H1  H2  O   H1  H2  O   H1  H2  O   H1  H2  O   H1  H2  
O   H1  H2  O   H1  H2  O   H1  H2  O   H1  H2  O   H1  H2  O   H1  H2  O   H1  
H2  O   H1  H2  O   H1  H2  O   H1  H2  O   H1  H2  O   H1  H2  O   H1  H2  O   
H1  H2  O   H1  H2  O   H1  H2  O   H1  H2  O   H1  H2  O   H1  H2  O   H1  H2  
O   H1  H2  O   H1  H2  O   H1  H2  O   H1  H2  O   H1  H2  O   H1  H2  O   H1  
H2  O   H1  H2  O   H1  H2  O   H1  H2  O   H1  H2  O   H1  H2  O   H1  H2  O   
H1  H2  O   H1  H2  O   H1  H2  O   H1  H2  O   H1  H2  O   H1  H2  O   H1  H2  
O   H1  H2  O   H1  H2  O   H1  H2  O   H1  H2  O   H1  H2  O   H1  H2  O   H1  
H2  O   H1  H2  O   H1  H2  O   H1  H2  O   H1  H2  O   H1  H2  O   H1  H2  O   
H1  H2  O   H1  H2  O   H1  H2  O   H1  H2  O   H1  H2  O   H1  H2  O   H1  H2  
O   H1  H2  O   H1  H2  O   H1  H2  O   H1  H2  O   H1  H2  O   H1  H2  O   H1  
H2  O   H1  H2  O   H1  H2  O   H1  H2  O   H1  H2  O   H1  H2  O   H1  H2  O   
H1  H2  O   H1  H2  O   H1  H2  O   H1  H2  O   H1  H2  O   H1  H2  O   H1  H2  
O   H1  H2  O   H1  H2  O   H1  H2  O   H1  H2  O   H1  H2  O   H1  H2  O   H1  
H2  O   H1  H2  O   H1  H2  O   H1  H2  O   H1  H2  O   H1  H2  O   H1  H2  O   
H1  H2  O   H1  H2  O   H1  H2  O   H1  H2  O   H1  H2  O   H1  H2  O   H1  H2  
O   H1  H2  O   H1  H2  O   H1  H2  O   H1  H2  O   H1  H2  O   H1  H2  O   H1  
H2  O   H1  H2  O   H1  H2  O   H1  H2  O   H1  H2  O   H1  H2  O   H1  H2  O   
H1  H2  O   H1  H2  O   H1  H2  O   H1  H2  O   H1  H2  O   H1  H2  O   H1  H2  
O   H1  H2  O   H1  H2  O   H1  H2  O   H1  H2  O   H1  H2  O   H1  H2  O   H1  
H2  O   H1  H2  O   H1  H2  O   H1  H2  O   H1  H2  O   H1  H2  O   H1  H2  O   
H1  H2  O   H1  H2  O   H1  H2  O   H1  H2  O   H1  H2  O   H1  H2  O   H1  H2  
O   H1  H2  O   H1  H2  O   H1  H2  O   H1  H2  O   H1  H2  O   H1  H2  O   H1  
H2  O   H1  H2  O   H1  H2  O   H1  H2  O   H1  H2  O   H1  H2  O   H1  H2  O   
H1  H2  O   H1  H2  O   H1  H2  O   H1  H2  O   H1  H2  O   H1  H2  O   H1  H2  
O   H1  H2  O   H1  H2  O   H1  H2  O   H1  H2  O   H1  H2  O   H1  H2  O   H1  
H2  O   H1  H2  O   H1  H2  O   H1  H2  O   H1  H2  O   H1  H2  O   H1  H2  O   
H1  H2  O   H1  H2  O   H1  H2  O   H1  H2  O   H1  H2  O   H1  H2  O   H1  H2  
O   H1  H2  O   H1  H2  O   H1  H2  O   H1  H2  O   H1  H2  O   H1  H2  O   H1  
H2  O   H1  H2  O   H1  H2  O   H1  H2  O   H1  H2  O   H1  H2  O   H1  H2  O   
H1  H2  O   H1  H2  O   H1  H2  O   H1  H2  O   H1  H2  O   H1  H2  O   H1  H2  
O   H1  H2  O   H1  H2  O   H1  H2  O   H1  H2  O   H1  H2  O   H1  H2  O   H1  
H2  O   H1  H2  O   H1  H2  O   H1  H2  O   H1  H2  O   H1  H2  O   H1  H2  O   
H1  H2  O   H1  H2  O   H1  H2  O   H1  H2  O   H1  H2  O   H1  H2  O   H1  H2  
O   H1  H2  O   H1  H2  O   H1  H2  O   H1  H2  O   H1  H2  O   H1  H2  O   H1  
H2  O   H1  H2  O   H1  H2  O   H1  H2  O   H1  H2  O   H1  H2  O   H1  H2  O   
H1  H2  O   H1  H2  O   H1  H2  O   H1  H2  O   H1  H2  O   H1  H2  O   H1  H2  
O   H1  H2  O   H1  H2  O   H1  H2  O   H1  H2  O   H1  H2  O   H1  H2  O   H1  
H2  O   H1  H2  O   H1  H2  O   H1  H2  O   H1  H2  O   H1  H2  O   H1  H2  O   
H1  H2  O   H1  H2  O   H1  H2  O   H1  H2  O   H1  H2  O   H1  H2  O   H1  H2  
O   H1  H2  O   H1  H2  O   H1  H2  O   H1  H2  O   H1  H2  O   H1  H2  O   H1  
H2  O   H1  H2  O   H1  H2  O   H1  H2  O   H1  H2  O   H1  H2  O   H1  H2  O   
H1  H2  O   H1  H2  O   H1  H2  O   H1  H2  O   H1  H2  O   H1  H2  O   H1  H2  
O   H1  H2  O   H1  H2  O   H1  H2  O   H1  H2  O   H1  H2  O   H1  H2  O   H1  
H2  O   H1  H2  O   H1  H2  O   H1  H2  O   H1  H2  O   H1  H2  O   H1  H2  O   
H1  H2  O   H1  H2  O   H1  H2  O   H1  H2  O   H1  H2  O   H1  H2  O   H1  H2  
O   H1  H2  O   H1  H2  O   H1  H2  O   H1  H2  O   H1  H2  O   H1  H2  O   H1  
H2  O   H1  H2  O   H1  H2  O   H1  H2  O   H1  H2  O   H1  H2  O   H1  H2  O   
H1  H2  O   H1  H2  O   H1  H2  O   H1  H2  O   H1  H2  O   H1  H2  O   H1  H2  
O   H1  H2  O   H1  H2  O   H1  H2  O   H1  H2  O   H1  H2  O   H1  H2  O   H1  
H2  O   H1  H2  O   H1  H2  O   H1  H2  O   H1  H2  O   H1  H2  O   H1  H2  O   
H1  H2  O   H1  H2  O   H1  H2  O   H1  H2  O   H1  H2  O   H1  H2  O   H1  H2  
O   H1  H2  O   H1  H2  O   H1  H2  O   H1  H2  O   H1  H2  O   H1  H2  O   H1  
H2  O   H1  H2  O   H1  H2  O   H1  H2  O   H1  H2  O   H1  H2  O   H1  H2  O   
H1  H2  O   H1  H2  O   H1  H2  O   H1  H2  O   H1  H2  O   H1  H2  O   H1  H2  
O   H1  H2  O   H1  H2  O   H1  H2  O   H1  H2  O   H1  H2  O   H1  H2  O   H1  
H2  O   H1  H2  O   H1  H2  O   H1  H2  O   H1  H2  O   H1  H2  O   H1  H2  O   
H1  H2  O   H1  H2  O   H1  H2  O   H1  H2  O   H1  H2  O   H1  H2  O   H1  H2  
O   H1  H2  O   H1  H2  O   H1  H2  O   H1  H2  O   H1  H2  O   H1  H2  O   H1  
H2  O   H1  H2  O   H1  H2  O   H1  H2  O   H1  H2  O   H1  H2  O   H1  H2  O   
H1  H2  O   H1  H2  O   H1  H2  O   H1  H2  O   H1  H2  O   H1  H2  O   H1  H2  
O   H1  H2  O   H1  H2  O   H1  H2  O   H1  H2  O   H1  H2  O   H1  H2  O   H1  
H2  O   H1  H2  O   H1  H2  O   H1  H2  O   H1  H2  O   H1  H2  O   H1  H2  O   
H1  H2  O   H1  H2  O   H1  H2  O   H1  H2  O   H1  H2  O   H1  H2  O   H1  H2  
O   H1  H2  O   H1  H2  O   H1  H2  O   H1  H2  O   H1  H2  O   H1  H2  O   H1  
H2  O   H1  H2  O   H1  H2  O   H1  H2  O   H1  H2  O   H1  H2  O   H1  H2  O   
H1  H2  O   H1  H2  O   H1  H2  O   H1  H2  O   H1  H2  O   H1  H2  O   H1  H2  
O   H1  H2  O   H1  H2  O   H1  H2  O   H1  H2  O   H1  H2  O   H1  H2  O   H1  
H2  O   H1  H2  O   H1  H2  O   H1  H2  O   H1  H2  O   H1  H2  O   H1  H2  O   
H1  H2  O   H1  H2  O   H1  H2  O   H1  H2  O   H1  H2  O   H1  H2  O   H1  H2  
O   H1  H2  O   H1  H2  O   H1  H2  O   H1  H2  O   H1  H2  O   H1  H2  O   H1  
H2  O   H1  H2  O   H1  H2  O   H1  H2  O   H1  H2  O   H1  H2  O   H1  H2  O   
H1  H2  O   H1  H2  O   H1  H2  O   H1  H2  O   H1  H2  O   H1  H2  O   H1  H2  
O   H1  H2  O   H1  H2  O   H1  H2  O   H1  H2  O   H1  H2  O   H1  H2  O   H1  
H2  O   H1  H2  O   H1  H2  O   H1  H2  O   H1  H2  O   H1  H2  O   H1  H2  O   
H1  H2  O   H1  H2  O   H1  H2  O   H1  H2  O   H1  H2  O   H1  H2  O   H1  H2  
O   H1  H2  O   H1  H2  O   H1  H2  O   H1  H2  O   H1  H2  O   H1  H2  O   H1  
H2  O   H1  H2  O   H1  H2  O   H1  H2  O   H1  H2  O   H1  H2  O   H1  H2  O   
H1  H2  O   H1  H2  O   H1  H2  O   H1  H2  O   H1  H2  O   H1  H2  O   H1  H2  
O   H1  H2  O   H1  H2  O   H1  H2  O   H1  H2  O   H1  H2  O   H1  H2  O   H1  
H2  O   H1  H2  O   H1  H2  O   H1  H2  O   H1  H2  O   H1  H2  O   H1  H2  O   
H1  H2  O   H1  H2  O   H1  H2  O   H1  H2  O   H1  H2  O   H1  H2  O   H1  H2  
O   H1  H2  O   H1  H2  O   H1  H2  O   H1  H2  O   H1  H2  O   H1  H2  O   H1  
H2  O   H1  H2  O   H1  H2  O   H1  H2  O   H1  H2  O   H1  H2  O   H1  H2  O   
H1  H2  O   H1  H2  O   H1  H2  O   H1  H2  O   H1  H2  O   H1  H2  O   H1  H2  
O   H1  H2  O   H1  H2  O   H1  H2  O   H1  H2  O   H1  H2  O   H1  H2  O   H1  
H2  O   H1  H2  O   H1  H2  O   H1  H2  O   H1  H2  O   H1  H2  O   H1  H2  O   
H1  H2  O   H1  H2  O   H1  H2  O   H1  H2  O   H1  H2  O   H1  H2  O   H1  H2  
O   H1  H2  O   H1  H2  O   H1  H2  O   H1  H2  O   H1  H2  O   H1  H2  O   H1  
H2  O   H1  H2  O   H1  H2  O   H1  H2  O   H1  H2  O   H1  H2  O   H1  H2  O   
H1  H2  O   H1  H2  O   H1  H2  O   H1  H2  O   H1  H2  O   H1  H2  O   H1  H2  
O   H1  H2  O   H1  H2  O   H1  H2  O   H1  H2  O   H1  H2  O   H1  H2  O   H1  
H2  O   H1  H2  O   H1  H2  O   H1  H2  O   H1  H2  O   H1  H2  O   H1  H2  O   
H1  H2  O   H1  H2  O   H1  H2  O   H1  H2  O   H1  H2  O   H1  H2  O   H1  H2  
O   H1  H2  O   H1  H2  O   H1  H2  O   H1  H2  O   H1  H2  O   H1  H2  O   H1  
H2  O   H1  H2  O   H1  H2  O   H1  H2  O   H1  H2  O   H1  H2  O   H1  H2  O   
H1  H2  O   H1  H2  O   H1  H2  O   H1  H2  O   H1  H2  O   H1  H2  O   H1  H2  
O   H1  H2  O   H1  H2  O   H1  H2  O   H1  H2  O   H1  H2  O   H1  H2  O   H1  
H2  O   H1  H2  O   H1  H2  O   H1  H2  O   H1  H2  O   H1  H2  O   H1  H2  O   
H1  H2  O   H1  H2  O   H1  H2  O   H1  H2  O   H1  H2  O   H1  H2  O   H1  H2  
O   H1  H2  O   H1  H2  O   H1  H2  O   H1  H2  O   H1  H2  O   H1  H2  O   H1  
H2  O   H1  H2  O   H1  H2  O   H1  H2  O   H1  H2  O   H1  H2  O   H1  H2  O   
H1  H2  O   H1  H2  O   H1  H2  O   H1  H2  O   H1  H2  O   H1  H2  O   H1  H2  
O   H1  H2  O   H1  H2  O   H1  H2  O   H1  H2  O   H1  H2  O   H1  H2  O   H1  
H2  O   H1  H2  O   H1  H2  O   H1  H2  O   H1  H2  O   H1  H2  O   H1  H2  O   
H1  H2  O   H1  H2  O   H1  H2  O   H1  H2  O   H1  H2  O   H1  H2  O   H1  H2  
O   H1  H2  O   H1  H2  O   H1  H2  O   H1  H2  O   H1  H2  O   H1  H2  O   H1  
H2  O   H1  H2  O   H1  H2  O   H1  H2  O   H1  H2  O   H1  H2  O   H1  H2  O   
H1  H2  O   H1  H2  O   H1  H2  O   H1  H2  O   H1  H2  O   H1  H2  O   H1  H2  
O   H1  H2  O   H1  H2  O   H1  H2  O   H1  H2  O   H1  H2  O   H1  H2  O   H1  
H2  O   H1  H2  O   H1  H2  O   H1  H2  O   H1  H2  O   H1  H2  O   H1  H2  O   
H1  H2  O   H1  H2  O   H1  H2  O   H1  H2  O   H1  H2  O   H1  H2  O   H1  H2  
O   H1  H2  O   H1  H2  O   H1  H2  O   H1  H2  O   H1  H2  O   H1  H2  O   H1  
H2  O   H1  H2  O   H1  H2  O   H1  H2  O   H1  H2  O   H1  H2  O   H1  H2  O   
H1  H2  O   H1  H2  O   H1  H2  O   H1  H2  O   H1  H2  O   H1  H2  O   H1  H2  
O   H1  H2  O   H1  H2  O   H1  H2  O   H1  H2  O   H1  H2  O   H1  H2  O   H1  
H2  O   H1  H2  O   H1  H2  O   H1  H2  O   H1  H2  O   H1  H2  O   H1  H2  O   
H1  H2  O   H1  H2  O   H1  H2  O   H1  H2  O   H1  H2  O   H1  H2  O   H1  H2  
O   H1  H2  O   H1  H2  O   H1  H2  O   H1  H2  O   H1  H2  O   H1  H2  O   H1  
H2  O   H1  H2  O   H1  H2  O   H1  H2  O   H1  H2  O   H1  H2  O   H1  H2  O   
H1  H2  O   H1  H2  O   H1  H2  O   H1  H2  O   H1  H2  O   H1  H2  O   H1  H2  
O   H1  H2  O   H1  H2  O   H1  H2  O   H1  H2  O   H1  H2  O   H1  H2  O   H1  
H2  O   H1  H2  O   H1  H2  O   H1  H2  O   H1  H2  O   H1  H2  O   H1  H2  O   
H1  H2  O   H1  H2  O   H1  H2  O   H1  H2  O   H1  H2  O   H1  H2  O   H1  H2  
O   H1  H2  O   H1  H2  O   H1  H2  O   H1  H2  O   H1  H2  O   H1  H2  O   H1  
H2  O   H1  H2  O   H1  H2  O   H1  H2  O   H1  H2  O   H1  H2  O   H1  H2  O   
H1  H2  O   H1  H2  O   H1  H2  O   H1  H2  O   H1  H2  O   H1  H2  O   H1  H2  
O   H1  H2  O   H1  H2  O   H1  H2  O   H1  H2  O   H1  H2  O   H1  H2  O   H1  
H2  O   H1  H2  O   H1  H2  O   H1  H2  O   H1  H2  O   H1  H2  O   H1  H2  O   
H1  H2  O   H1  H2  O   H1  H2  O   H1  H2  O   H1  H2  O   H1  H2  O   H1  H2  
O   H1  H2  O   H1  H2  O   H1  H2  O   H1  H2  O   H1  H2  O   H1  H2  O   H1  
H2  O   H1  H2  O   H1  H2  O   H1  H2  O   H1  H2  O   H1  H2  O   H1  H2  O   
H1  H2  O   H1  H2  O   H1  H2  O   H1  H2  O   H1  H2  O   H1  H2  O   H1  H2  
O   H1  H2  O   H1  H2  O   H1  H2  O   H1  H2  O   H1  H2  O   H1  H2  O   H1  
H2  O   H1  H2  O   H1  H2  O   H1  H2  O   H1  H2  O   H1  H2  O   H1  H2  O   
H1  H2  O   H1  H2  O   H1  H2  O   H1  H2  O   H1  H2  O   H1  H2  O   H1  H2  
O   H1  H2  O   H1  H2  O   H1  H2  O   H1  H2  O   H1  H2  O   H1  H2  O   H1  
H2  O   H1  H2  O   H1  H2  O   H1  H2  O   H1  H2  O   H1  H2  O   H1  H2  O   
H1  H2  O   H1  H2  O   H1  H2  O   H1  H2  O   H1  H2  O   H1  H2  O   H1  H2  
O   H1  H2  O   H1  H2  O   H1  H2  O   H1  H2  O   H1  H2  O   H1  H2  O   H1  
H2  O   H1  H2  O   H1  H2  O   H1  H2  O   H1  H2  O   H1  H2  O   H1  H2  O   
H1  H2  O   H1  H2  O   H1  H2  O   H1  H2  O   H1  H2  O   H1  H2  O   H1  H2  
O   H1  H2  O   H1  H2  O   H1  H2  O   H1  H2  O   H1  H2  O   H1  H2  O   H1  
H2  O   H1  H2  O   H1  H2  O   H1  H2  O   H1  H2  O   H1  H2  O   H1  H2  O   
H1  H2  O   H1  H2  O   H1  H2  O   H1  H2  O   H1  H2  O   H1  H2  O   H1  H2  
O   H1  H2  O   H1  H2  O   H1  H2  O   H1  H2  O   H1  H2  O   H1  H2  O   H1  
H2  O   H1  H2  O   H1  H2  O   H1  H2  O   H1  H2  O   H1  H2  O   H1  H2  O   
H1  H2  O   H1  H2  O   H1  H2  O   H1  H2  O   H1  H2  O   H1  H2  O   H1  H2  
O   H1  H2  O   H1  H2  O   H1  H2  O   H1  H2  O   H1  H2  O   H1  H2  O   H1  
H2  O   H1  H2  O   H1  H2  O   H1  H2  O   H1  H2  O   H1  H2  O   H1  H2  O   
H1  H2  O   H1  H2  O   H1  H2  O   H1  H2  O   H1  H2  O   H1  H2  O   H1  H2  
O   H1  H2  O   H1  H2  O   H1  H2  O   H1  H2  O   H1  H2  O   H1  H2  O   H1  
H2  O   H1  H2  O   H1  H2  O   H1  H2  O   H1  H2  O   H1  H2  O   H1  H2  O   
H1  H2  O   H1  H2  O   H1  H2  O   H1  H2  O   H1  H2  O   H1  H2  O   H1  H2  
O   H1  H2  O   H1  H2  O   H1  H2  O   H1  H2  O   H1  H2  O   H1  H2  O   H1  
H2  O   H1  H2  O   H1  H2  O   H1  H2  O   H1  H2  O   H1  H2  O   H1  H2  O   
H1  H2  O   H1  H2  O   H1  H2  O   H1  H2  O   H1  H2  O   H1  H2  O   H1  H2  
O   H1  H2  O   H1  H2  O   H1  H2  O   H1  H2  O   H1  H2  O   H1  H2  O   H1  
H2  O   H1  H2  O   H1  H2  O   H1  H2  O   H1  H2  O   H1  H2  O   H1  H2  O   
H1  H2  O   H1  H2  O   H1  H2  O   H1  H2  O   H1  H2  O   H1  H2  O   H1  H2  
O   H1  H2  O   H1  H2  O   H1  H2  O   H1  H2  O   H1  H2  O   H1  H2  O   H1  
H2  O   H1  H2  O   H1  H2  O   H1  H2  O   H1  H2  O   H1  H2  O   H1  H2  O   
H1  H2  O   H1  H2  O   H1  H2  O   H1  H2  O   H1  H2  O   H1  H2  O   H1  H2  
O   H1  H2  O   H1  H2  O   H1  H2  O   H1  H2  O   H1  H2  O   H1  H2  O   H1  
H2  O   H1  H2  O   H1  H2  O   H1  H2  O   H1  H2  O   H1  H2  O   H1  H2  O   
H1  H2  O   H1  H2  O   H1  H2  O   H1  H2  O   H1  H2  O   H1  H2  O   H1  H2  
O   H1  H2  O   H1  H2  O   H1  H2  O   H1  H2  O   H1  H2  O   H1  H2  O   H1  
H2  O   H1  H2  O   H1  H2  O   H1  H2  O   H1  H2  O   H1  H2  O   H1  H2  O   
H1  H2  O   H1  H2  O   H1  H2  O   H1  H2  O   H1  H2  O   H1  H2  O   H1  H2  
O   H1  H2  O   H1  H2  O   H1  H2  O   H1  H2  O   H1  H2  O   H1  H2  O   H1  
H2  O   H1  H2  O   H1  H2  O   H1  H2  O   H1  H2  O   H1  H2  O   H1  H2  O   
H1  H2  O   H1  H2  O   H1  H2  O   H1  H2  O   H1  H2  O   H1  H2  O   H1  H2  
O   H1  H2  O   H1  H2  O   H1  H2  O   H1  H2  O   H1  H2  O   H1  H2  O   H1  
H2  O   H1  H2  O   H1  H2  O   H1  H2  O   H1  H2  O   H1  H2  O   H1  H2  O   
H1  H2  O   H1  H2  O   H1  H2  O   H1  H2  O   H1  H2  O   H1  H2  O   H1  H2  
O   H1  H2  O   H1  H2  O   H1  H2  O   H1  H2  O   H1  H2  O   H1  H2  O   H1  
H2  O   H1  H2  O   H1  H2  O   H1  H2  O   H1  H2  O   H1  H2  O   H1  H2  O   
H1  H2  O   H1  H2  O   H1  H2  O   H1  H2  O   H1  H2  O   H1  H2  O   H1  H2  
O   H1  H2  O   H1  H2  O   H1  H2  O   H1  H2  O   H1  H2  O   H1  H2  O   H1  
H2  O   H1  H2  O   H1  H2  O   H1  H2  O   H1  H2  O   H1  H2  O   H1  H2  O   
H1  H2  O   H1  H2  O   H1  H2  O   H1  H2  O   H1  H2  O   H1  H2  O   H1  H2  
O   H1  H2  O   H1  H2  O   H1  H2  O   H1  H2  O   H1  H2  O   H1  H2  O   H1  
H2  O   H1  H2  O   H1  H2  O   H1  H2  O   H1  H2  O   H1  H2  O   H1  H2  O   
H1  H2  O   H1  H2  O   H1  H2  O   H1  H2  O   H1  H2  O   H1  H2  O   H1  H2  
O   H1  H2  O   H1  H2  O   H1  H2  O   H1  H2  O   H1  H2  O   H1  H2  O   H1  
H2  O   H1  H2  O   H1  H2  O   H1  H2  O   H1  H2  O   H1  H2  O   H1  H2  O   
H1  H2  O   H1  H2  O   H1  H2  O   H1  H2  O   H1  H2  O   H1  H2  O   H1  H2  
O   H1  H2  O   H1  H2  O   H1  H2  O   H1  H2  O   H1  H2  O   H1  H2  O   H1  
H2  O   H1  H2  O   H1  H2  O   H1  H2  O   H1  H2  O   H1  H2  O   H1  H2  O   
H1  H2  O   H1  H2  O   H1  H2  O   H1  H2  O   H1  H2  O   H1  H2  O   H1  H2  
O   H1  H2  O   H1  H2  O   H1  H2  O   H1  H2  O   H1  H2  O   H1  H2  O   H1  
H2  O   H1  H2  O   H1  H2  O   H1  H2  O   H1  H2  O   H1  H2  O   H1  H2  O   
H1  H2  O   H1  H2  O   H1  H2  O   H1  H2  O   H1  H2  O   H1  H2  O   H1  H2  
O   H1  H2  O   H1  H2  O   H1  H2  O   H1  H2  O   H1  H2  O   H1  H2  O   H1  
H2  O   H1  H2  O   H1  H2  O   H1  H2  O   H1  H2  O   H1  H2  O   H1  H2  O   
H1  H2  O   H1  H2  O   H1  H2  O   H1  H2  O   H1  H2  O   H1  H2  O   H1  H2  
O   H1  H2  O   H1  H2  O   H1  H2  O   H1  H2  O   H1  H2  O   H1  H2  O   H1  
H2  O   H1  H2  O   H1  H2  O   H1  H2  O   H1  H2  O   H1  H2  O   H1  H2  O   
H1  H2  O   H1  H2  O   H1  H2  O   H1  H2  O   H1  H2  O   H1  H2  O   H1  H2  
O   H1  H2  O   H1  H2  O   H1  H2  O   H1  H2  O   H1  H2  O   H1  H2  O   H1  
H2  O   H1  H2  O   H1  H2  O   H1  H2  O   H1  H2  O   H1  H2  O   H1  H2  O   
H1  H2  O   H1  H2  O   H1  H2  O   H1  H2  O   H1  H2  O   H1  H2  O   H1  H2  
O   H1  H2  O   H1  H2  O   H1  H2  O   H1  H2  O   H1  H2  O   H1  H2  O   H1  
H2  O   H1  H2  O   H1  H2  O   H1  H2  O   H1  H2  O   H1  H2  O   H1  H2  O   
H1  H2  O   H1  H2  O   H1  H2  O   H1  H2  O   H1  H2  O   H1  H2  O   H1  H2  
O   H1  H2  O   H1  H2  O   H1  H2  O   H1  H2  O   H1  H2  O   H1  H2  O   H1  
H2  O   H1  H2  O   H1  H2  O   H1  H2  O   H1  H2  O   H1  H2  O   H1  H2  O   
H1  H2  O   H1  H2  O   H1  H2  O   H1  H2  O   H1  H2  O   H1  H2  O   H1  H2  
O   H1  H2  O   H1  H2  O   H1  H2  O   H1  H2  O   H1  H2  O   H1  H2  O   H1  
H2  O   H1  H2  O   H1  H2  O   H1  H2  O   H1  H2  O   H1  H2  O   H1  H2  O   
H1  H2  O   H1  H2  O   H1  H2  O   H1  H2  O   H1  H2  O   H1  H2  O   H1  H2  
O   H1  H2  O   H1  H2  O   H1  H2  O   H1  H2  O   H1  H2  O   H1  H2  O   H1  
H2  O   H1  H2  O   H1  H2  O   H1  H2  O   H1  H2  O   H1  H2  O   H1  H2  O   
H1  H2  O   H1  H2  O   H1  H2  O   H1  H2  O   H1  H2  O   H1  H2  O   H1  H2  
O   H1  H2  O   H1  H2  O   H1  H2  O   H1  H2  O   H1  H2  O   H1  H2  O   H1  
H2  O   H1  H2  O   H1  H2  O   H1  H2  O   H1  H2  O   H1  H2  O   H1  H2  O   
H1  H2  O   H1  H2  O   H1  H2  O   H1  H2  O   H1  H2  O   H1  H2  O   H1  H2  
O   H1  H2  O   H1  H2  O   H1  H2  O   H1  H2  O   H1  H2  O   H1  H2  O   H1  
H2  O   H1  H2  O   H1  H2  O   H1  H2  O   H1  H2  O   H1  H2  O   H1  H2  O   
H1  H2  O   H1  H2  O   H1  H2  O   H1  H2  O   H1  H2  O   H1  H2  O   H1  H2  
O   H1  H2  O   H1  H2  O   H1  H2  O   H1  H2  O   H1  H2  O   H1  H2  O   H1  
H2  O   H1  H2  O   H1  H2  O   H1  H2  O   H1  H2  O   H1  H2  O   H1  H2  O   
H1  H2  O   H1  H2  O   H1  H2  O   H1  H2  O   H1  H2  O   H1  H2  O   H1  H2  
O   H1  H2  O   H1  H2  O   H1  H2  O   H1  H2  O   H1  H2  O   H1  H2  O   H1  
H2  O   H1  H2  O   H1  H2  O   H1  H2  O   H1  H2  O   H1  H2  O   H1  H2  O   
H1  H2  O   H1  H2  O   H1  H2  O   H1  H2  O   H1  H2  O   H1  H2  O   H1  H2  
O   H1  H2  O   H1  H2  O   H1  H2  O   H1  H2  O   H1  H2  O   H1  H2  O   H1  
H2  O   H1  H2  O   H1  H2  O   H1  H2  O   H1  H2  O   H1  H2  O   H1  H2  O   
H1  H2  O   H1  H2  O   H1  H2  O   H1  H2  O   H1  H2  O   H1  H2  O   H1  H2  
O   H1  H2  O   H1  H2  O   H1  H2  O   H1  H2  O   H1  H2  O   H1  H2  O   H1  
H2  O   H1  H2  O   H1  H2  O   H1  H2  O   H1  H2  O   H1  H2  O   H1  H2  O   
H1  H2  O   H1  H2  O   H1  H2  O   H1  H2  O   H1  H2  O   H1  H2  O   H1  H2  
O   H1  H2  O   H1  H2  O   H1  H2  O   H1  H2  O   H1  H2  O   H1  H2  O   H1  
H2  O   H1  H2  O   H1  H2  O   H1  H2  O   H1  H2  O   H1  H2  O   H1  H2  O   
H1  H2  O   H1  H2  O   H1  H2  O   H1  H2  O   H1  H2  O   H1  H2  O   H1  H2  
O   H1  H2  O   H1  H2  O   H1  H2  O   H1  H2  O   H1  H2  O   H1  H2  O   H1  
H2  O   H1  H2  O   H1  H2  O   H1  H2  O   H1  H2  O   H1  H2  O   H1  H2  O   
H1  H2  O   H1  H2  O   H1  H2  O   H1  H2  O   H1  H2  O   H1  H2  O   H1  H2  
O   H1  H2  O   H1  H2  O   H1  H2  O   H1  H2  O   H1  H2  O   H1  H2  O   H1  
H2  O   H1  H2  O   H1  H2  O   H1  H2  O   H1  H2  O   H1  H2  O   H1  H2  O   
H1  H2  O   H1  H2  O   H1  H2  O   H1  H2  O   H1  H2  O   H1  H2  O   H1  H2  
O   H1  H2  O   H1  H2  O   H1  H2  O   H1  H2  O   H1  H2  O   H1  H2  O   H1  
H2  O   H1  H2  O   H1  H2  O   H1  H2  O   H1  H2  O   H1  H2  O   H1  H2  O   
H1  H2  O   H1  H2  O   H1  H2  O   H1  H2  O   H1  H2  O   H1  H2  O   H1  H2  
O   H1  H2  O   H1  H2  O   H1  H2  O   H1  H2  O   H1  H2  O   H1  H2  O   H1  
H2  O   H1  H2  O   H1  H2  O   H1  H2  O   H1  H2  O   H1  H2  O   H1  H2  O   
H1  H2  O   H1  H2  O   H1  H2  O   H1  H2  O   H1  H2  O   H1  H2  O   H1  H2  
O   H1  H2  O   H1  H2  O   H1  H2  O   H1  H2  O   H1  H2  O   H1  H2  O   H1  
H2  O   H1  H2  O   H1  H2  O   H1  H2  O   H1  H2  O   H1  H2  O   H1  H2  O   
H1  H2  O   H1  H2  O   H1  H2  O   H1  H2  O   H1  H2  O   H1  H2  O   H1  H2  
O   H1  H2  O   H1  H2  O   H1  H2  O   H1  H2  O   H1  H2  O   H1  H2  O   H1  
H2  O   H1  H2  O   H1  H2  O   H1  H2  O   H1  H2  O   H1  H2  O   H1  H2  O   
H1  H2  O   H1  H2  O   H1  H2  O   H1  H2  O   H1  H2  O   H1  H2  O   H1  H2  
O   H1  H2  O   H1  H2  O   H1  H2  O   H1  H2  O   H1  H2  O   H1  H2  O   H1  
H2  O   H1  H2  O   H1  H2  O   H1  H2  O   H1  H2  O   H1  H2  O   H1  H2  O   
H1  H2  O   H1  H2  O   H1  H2  O   H1  H2  O   H1  H2  O   H1  H2  O   H1  H2  
O   H1  H2  O   H1  H2  O   H1  H2  O   H1  H2  O   H1  H2  O   H1  H2  O   H1  
H2  O   H1  H2  O   H1  H2  O   H1  H2  O   H1  H2  O   H1  H2  O   H1  H2  O   
H1  H2  O   H1  H2  O   H1  H2  O   H1  H2  O   H1  H2  O   H1  H2  O   H1  H2  
O   H1  H2  O   H1  H2  O   H1  H2  O   H1  H2  O   H1  H2  O   H1  H2  O   H1  
H2  O   H1  H2  O   H1  H2  O   H1  H2  O   H1  H2  O   H1  H2  O   H1  H2  O   
H1  H2  O   H1  H2  O   H1  H2  O   H1  H2  O   H1  H2  O   H1  H2  O   H1  H2  
O   H1  H2  O   H1  H2  O   H1  H2  O   H1  H2  O   H1  H2  O   H1  H2  O   H1  
H2  O   H1  H2  O   H1  H2  O   H1  H2  O   H1  H2  O   H1  H2  O   H1  H2  O   
H1  H2  O   H1  H2  O   H1  H2  O   H1  H2  O   H1  H2  O   H1  H2  O   H1  H2  
O   H1  H2  O   H1  H2  O   H1  H2  O   H1  H2  O   H1  H2  O   H1  H2  O   H1  
H2  O   H1  H2  O   H1  H2  O   H1  H2  O   H1  H2  O   H1  H2  O   H1  H2  O   
H1  H2  O   H1  H2  O   H1  H2  O   H1  H2  O   H1  H2  O   H1  H2  O   H1  H2  
O   H1  H2  O   H1  H2  O   H1  H2  O   H1  H2  O   H1  H2  O   H1  H2  O   H1  
H2  O   H1  H2  O   H1  H2  O   H1  H2  O   H1  H2  O   H1  H2  O   H1  H2  O   
H1  H2  O   H1  H2  O   H1  H2  O   H1  H2  O   H1  H2  O   H1  H2  O   H1  H2  
O   H1  H2  O   H1  H2  O   H1  H2  O   H1  H2  O   H1  H2  O   H1  H2  O   H1  
H2  O   H1  H2  O   H1  H2  O   H1  H2  O   H1  H2  O   H1  H2  O   H1  H2  O   
H1  H2  O   H1  H2  O   H1  H2  O   H1  H2  O   H1  H2  O   H1  H2  O   H1  H2  
O   H1  H2  O   H1  H2  O   H1  H2  O   H1  H2  O   H1  H2  O   H1  H2  O   H1  
H2  O   H1  H2  O   H1  H2  O   H1  H2  O   H1  H2  O   H1  H2  O   H1  H2  O   
H1  H2  O   H1  H2  O   H1  H2  O   H1  H2  O   H1  H2  O   H1  H2  O   H1  H2  
O   H1  H2  O   H1  H2  O   H1  H2  O   H1  H2  O   H1  H2  O   H1  H2  O   H1  
H2  O   H1  H2  O   H1  H2  O   H1  H2  O   H1  H2  O   H1  H2  O   H1  H2  O   
H1  H2  O   H1  H2  O   H1  H2  O   H1  H2  O   H1  H2  O   H1  H2  O   H1  H2  
O   H1  H2  O   H1  H2  O   H1  H2  O   H1  H2  O   H1  H2  O   H1  H2  O   H1  
H2  O   H1  H2  O   H1  H2  O   H1  H2  O   H1  H2  O   H1  H2  O   H1  H2  O   
H1  H2  O   H1  H2  O   H1  H2  O   H1  H2  O   H1  H2  O   H1  H2  O   H1  H2  
O   H1  H2  O   H1  H2  O   H1  H2  O   H1  H2  O   H1  H2  O   H1  H2  O   H1  
H2  O   H1  H2  O   H1  H2  O   H1  H2  O   H1  H2  O   H1  H2  O   H1  H2  O   
H1  H2  O   H1  H2  O   H1  H2  O   H1  H2  O   H1  H2  O   H1  H2  O   H1  H2  
O   H1  H2  O   H1  H2  O   H1  H2  O   H1  H2  O   H1  H2  O   H1  H2  O   H1  
H2  O   H1  H2  O   H1  H2  O   H1  H2  O   H1  H2  O   H1  H2  O   H1  H2  O   
H1  H2  O   H1  H2  O   H1  H2  O   H1  H2  O   H1  H2  O   H1  H2  O   H1  H2  
O   H1  H2  O   H1  H2  O   H1  H2  O   H1  H2  O   H1  H2  O   H1  H2  O   H1  
H2  O   H1  H2  O   H1  H2  O   H1  H2  O   H1  H2  O   H1  H2  O   H1  H2  O   
H1  H2  O   H1  H2  O   H1  H2  O   H1  H2  O   H1  H2  O   H1  H2  O   H1  H2  
O   H1  H2  O   H1  H2  O   H1  H2  O   H1  H2  O   H1  H2  O   H1  H2  O   H1  
H2  O   H1  H2  O   H1  H2  O   H1  H2  O   H1  H2  O   H1  H2  O   H1  H2  O   
H1  H2  O   H1  H2  O   H1  H2  O   H1  H2  O   H1  H2  O   H1  H2  O   H1  H2  
O   H1  H2  O   H1  H2  O   H1  H2  O   H1  H2  O   H1  H2  O   H1  H2  O   H1  
H2  O   H1  H2  O   H1  H2  O   H1  H2  O   H1  H2  O   H1  H2  O   H1  H2  O   
H1  H2  O   H1  H2  O   H1  H2  O   H1  H2  O   H1  H2  O   H1  H2  O   H1  H2  
O   H1  H2  O   H1  H2  O   H1  H2  O   H1  H2  O   H1  H2  O   H1  H2  O   H1  
H2  O   H1  H2  O   H1  H2  O   H1  H2  O   H1  H2  O   H1  H2  O   H1  H2  O   
H1  H2  O   H1  H2  O   H1  H2  O   H1  H2  O   H1  H2  O   H1  H2  O   H1  H2  
O   H1  H2  O   H1  H2  O   H1  H2  O   H1  H2  O   H1  H2  O   H1  H2  O   H1  
H2  O   H1  H2  O   H1  H2  O   H1  H2  O   H1  H2  O   H1  H2  O   H1  H2  O   
H1  H2  O   H1  H2  O   H1  H2  O   H1  H2  O   H1  H2  O   H1  H2  O   H1  H2  
O   H1  H2  O   H1  H2  O   H1  H2  O   H1  H2  O   H1  H2  O   H1  H2  O   H1  
H2  O   H1  H2  O   H1  H2  O   H1  H2  O   H1  H2  O   H1  H2  O   H1  H2  O   
H1  H2  O   H1  H2  O   H1  H2  O   H1  H2  O   H1  H2  O   H1  H2  O   H1  H2  
O   H1  H2  O   H1  H2  O   H1  H2  O   H1  H2  O   H1  H2  O   H1  H2  O   H1  
H2  O   H1  H2  O   H1  H2  O   H1  H2  O   H1  H2  O   H1  H2  O   H1  H2  O   
H1  H2  O   H1  H2  O   H1  H2  O   H1  H2  O   H1  H2  O   H1  H2  O   H1  H2  
O   H1  H2  O   H1  H2  O   H1  H2  O   H1  H2  O   H1  H2  O   H1  H2  O   H1  
H2  O   H1  H2  O   H1  H2  O   H1  H2  O   H1  H2  O   H1  H2  O   H1  H2  O   
H1  H2  O   H1  H2  O   H1  H2  O   H1  H2  O   H1  H2  O   H1  H2  O   H1  H2  
O   H1  H2  O   H1  H2  O   H1  H2  O   H1  H2  O   H1  H2  O   H1  H2  O   H1  
H2  O   H1  H2  O   H1  H2  O   H1  H2  O   H1  H2  O   H1  H2  O   H1  H2  O   
H1  H2  O   H1  H2  O   H1  H2  O   H1  H2  O   H1  H2  O   H1  H2  O   H1  H2  
O   H1  H2  O   H1  H2  O   H1  H2  O   H1  H2  O   H1  H2  O   H1  H2  O   H1  
H2  O   H1  H2  O   H1  H2  O   H1  H2  O   H1  H2  O   H1  H2  O   H1  H2  O   
H1  H2  O   H1  H2  O   H1  H2  O   H1  H2  O   H1  H2  O   H1  H2  O   H1  H2  
O   H1  H2  O   H1  H2  O   H1  H2  O   H1  H2  O   H1  H2  O   H1  H2  O   H1  
H2  O   H1  H2  O   H1  H2  O   H1  H2  O   H1  H2  O   H1  H2  O   H1  H2  O   
H1  H2  O   H1  H2  O   H1  H2  O   H1  H2  O   H1  H2  O   H1  H2  O   H1  H2  
O   H1  H2  O   H1  H2  O   H1  H2  O   H1  H2  O   H1  H2  O   H1  H2  O   H1  
H2  O   H1  H2  O   H1  H2  O   H1  H2  O   H1  H2  O   H1  H2  O   H1  H2  O   
H1  H2  O   H1  H2  O   H1  H2  O   H1  H2  O   H1  H2  O   H1  H2  O   H1  H2  
O   H1  H2  O   H1  H2  O   H1  H2  O   H1  H2  O   H1  H2  O   H1  H2  O   H1  
H2  O   H1  H2  O   H1  H2  O   H1  H2  O   H1  H2  O   H1  H2  O   H1  H2  O   
H1  H2  O   H1  H2  O   H1  H2  O   H1  H2  O   H1  H2  O   H1  H2  O   H1  H2  
O   H1  H2  O   H1  H2  O   H1  H2  O   H1  H2  O   H1  H2  O   H1  H2  O   H1  
H2  O   H1  H2  O   H1  H2  O   H1  H2  O   H1  H2  O   H1  H2  O   H1  H2  O   
H1  H2  O   H1  H2  O   H1  H2  O   H1  H2  O   H1  H2  O   H1  H2  O   H1  H2  
O   H1  H2  O   H1  H2  O   H1  H2  O   H1  H2  O   H1  H2  O   H1  H2  O   H1  
H2  O   H1  H2  O   H1  H2  O   H1  H2  O   H1  H2  O   H1  H2  O   H1  H2  O   
H1  H2  O   H1  H2  O   H1  H2  O   H1  H2  O   H1  H2  O   H1  H2  O   H1  H2  
O   H1  H2  O   H1  H2  O   H1  H2  O   H1  H2  O   H1  H2  O   H1  H2  O   H1  
H2  O   H1  H2  O   H1  H2  O   H1  H2  O   H1  H2  O   H1  H2  O   H1  H2  O   
H1  H2  O   H1  H2  O   H1  H2  O   H1  H2  O   H1  H2  O   H1  H2  O   H1  H2  
O   H1  H2  O   H1  H2  O   H1  H2  O   H1  H2  O   H1  H2  O   H1  H2  O   H1  
H2  O   H1  H2  O   H1  H2  O   H1  H2  O   H1  H2  O   H1  H2  O   H1  H2  O   
H1  H2  O   H1  H2  O   H1  H2  O   H1  H2  O   H1  H2  O   H1  H2  O   H1  H2  
O   H1  H2  O   H1  H2  O   H1  H2  O   H1  H2  O   H1  H2  O   H1  H2  O   H1  
H2  O   H1  H2  O   H1  H2  O   H1  H2  O   H1  H2  O   H1  H2  O   H1  H2  O   
H1  H2  O   H1  H2  O   H1  H2  O   H1  H2  O   H1  H2  O   H1  H2  O   H1  H2  
O   H1  H2  O   H1  H2  O   H1  H2  O   H1  H2  O   H1  H2  O   H1  H2  O   H1  
H2  O   H1  H2  O   H1  H2  O   H1  H2  O   H1  H2  O   H1  H2  O   H1  H2  O   
H1  H2  O   H1  H2  O   H1  H2  O   H1  H2  O   H1  H2  O   H1  H2  O   H1  H2  
O   H1  H2  O   H1  H2  O   H1  H2  O   H1  H2  O   H1  H2  O   H1  H2  O   H1  
H2  O   H1  H2  O   H1  H2  O   H1  H2  O   H1  H2  O   H1  H2  O   H1  H2  O   
H1  H2  O   H1  H2  O   H1  H2  O   H1  H2  O   H1  H2  O   H1  H2  O   H1  H2  
O   H1  H2  O   H1  H2  O   H1  H2  O   H1  H2  O   H1  H2  O   H1  H2  O   H1  
H2  O   H1  H2  O   H1  H2  O   H1  H2  O   H1  H2  O   H1  H2  O   H1  H2  O   
H1  H2  O   H1  H2  O   H1  H2  O   H1  H2  O   H1  H2  O   H1  H2  O   H1  H2  
O   H1  H2  O   H1  H2  O   H1  H2  O   H1  H2  O   H1  H2  O   H1  H2  O   H1  
H2  O   H1  H2  O   H1  H2  O   H1  H2  O   H1  H2  O   H1  H2  O   H1  H2  O   
H1  H2  O   H1  H2  O   H1  H2  O   H1  H2  O   H1  H2  O   H1  H2  O   H1  H2  
O   H1  H2  O   H1  H2  O   H1  H2  O   H1  H2  O   H1  H2  O   H1  H2  O   H1  
H2  O   H1  H2  O   H1  H2  O   H1  H2  O   H1  H2  O   H1  H2  O   H1  H2  O   
H1  H2  O   H1  H2  O   H1  H2  O   H1  H2  O   H1  H2  O   H1  H2  O   H1  H2  
O   H1  H2  O   H1  H2  O   H1  H2  O   H1  H2  O   H1  H2  O   H1  H2  O   H1  
H2  O   H1  H2  O   H1  H2  O   H1  H2  O   H1  H2  O   H1  H2  O   H1  H2  O   
H1  H2  O   H1  H2  O   H1  H2  O   H1  H2  O   H1  H2  O   H1  H2  O   H1  H2  
O   H1  H2  O   H1  H2  O   H1  H2  O   H1  H2  O   H1  H2  O   H1  H2  O   H1  
H2  O   H1  H2  O   H1  H2  O   H1  H2  O   H1  H2  O   H1  H2  O   H1  H2  O   
H1  H2  O   H1  H2  O   H1  H2  O   H1  H2  O   H1  H2  O   H1  H2  O   H1  H2  
O   H1  H2  O   H1  H2  O   H1  H2  O   H1  H2  O   H1  H2  O   H1  H2  O   H1  
H2  O   H1  H2  O   H1  H2  O   H1  H2  O   H1  H2  O   H1  H2  O   H1  H2  O   
H1  H2  O   H1  H2  O   H1  H2  O   H1  H2  O   H1  H2  O   H1  H2  O   H1  H2  
O   H1  H2  O   H1  H2  O   H1  H2  O   H1  H2  O   H1  H2  O   H1  H2  O   H1  
H2  O   H1  H2  O   H1  H2  O   H1  H2  O   H1  H2  O   H1  H2  O   H1  H2  O   
H1  H2  O   H1  H2  O   H1  H2  O   H1  H2  O   H1  H2  O   H1  H2  O   H1  H2  
O   H1  H2  O   H1  H2  O   H1  H2  O   H1  H2  O   H1  H2  O   H1  H2  O   H1  
H2  O   H1  H2  O   H1  H2  O   H1  H2  O   H1  H2  O   H1  H2  O   H1  H2  O   
H1  H2  O   H1  H2  O   H1  H2  O   H1  H2  O   H1  H2  O   H1  H2  O   H1  H2  
O   H1  H2  O   H1  H2  O   H1  H2  O   H1  H2  O   H1  H2  O   H1  H2  O   H1  
H2  O   H1  H2  O   H1  H2  O   H1  H2  O   H1  H2  O   H1  H2  O   H1  H2  O   
H1  H2  O   H1  H2  O   H1  H2  O   H1  H2  O   H1  H2  O   H1  H2  O   H1  H2  
O   H1  H2  O   H1  H2  O   H1  H2  O   H1  H2  O   H1  H2  O   H1  H2  O   H1  
H2  O   H1  H2  O   H1  H2  O   H1  H2  O   H1  H2  O   H1  H2  O   H1  H2  O   
H1  H2  O   H1  H2  O   H1  H2  O   H1  H2  O   H1  H2  O   H1  H2  O   H1  H2  
O   H1  H2  O   H1  H2  O   H1  H2  O   H1  H2  O   H1  H2  O   H1  H2  O   H1  
H2  O   H1  H2  O   H1  H2  O   H1  H2  O   H1  H2  O   H1  H2  O   H1  H2  O   
H1  H2  O   H1  H2  O   H1  H2  O   H1  H2  O   H1  H2  O   H1  H2  O   H1  H2  
O   H1  H2  O   H1  H2  O   H1  H2  O   H1  H2  O   H1  H2  O   H1  H2  O   H1  
H2  O   H1  H2  O   H1  H2  O   H1  H2  O   H1  H2  O   H1  H2  O   H1  H2  O   
H1  H2  O   H1  H2  O   H1  H2  O   H1  H2  O   H1  H2  O   H1  H2  O   H1  H2  
O   H1  H2  O   H1  H2  O   H1  H2  O   H1  H2  O   H1  H2  O   H1  H2  O   H1  
H2  O   H1  H2  O   H1  H2  O   H1  H2  O   H1  H2  O   H1  H2  O   H1  H2  O   
H1  H2  O   H1  H2  O   H1  H2  O   H1  H2  O   H1  H2  O   H1  H2  O   H1  H2  
O   H1  H2  O   H1  H2  O   H1  H2  O   H1  H2  O   H1  H2  O   H1  H2  O   H1  
H2  O   H1  H2  O   H1  H2  O   H1  H2  O   H1  H2  O   H1  H2  O   H1  H2  O   
H1  H2  O   H1  H2  O   H1  H2  O   H1  H2  O   H1  H2  O   H1  H2  O   H1  H2  
O   H1  H2  O   H1  H2  O   H1  H2  O   H1  H2  O   H1  H2  O   H1  H2  O   H1  
H2  O   H1  H2  O   H1  H2  O   H1  H2  O   H1  H2  O   H1  H2  O   H1  H2  O   
H1  H2  O   H1  H2  O   H1  H2  O   H1  H2  O   H1  H2  O   H1  H2  O   H1  H2  
O   H1  H2  O   H1  H2  O   H1  H2  O   H1  H2  O   H1  H2  O   H1  H2  O   H1  
H2  O   H1  H2  O   H1  H2  O   H1  H2  O   H1  H2  O   H1  H2  O   H1  H2  O   
H1  H2  O   H1  H2  O   H1  H2  O   H1  H2  O   H1  H2  O   H1  H2  O   H1  H2  
O   H1  H2  O   H1  H2  O   H1  H2  O   H1  H2  O   H1  H2  O   H1  H2  O   H1  
H2  O   H1  H2  O   H1  H2  O   H1  H2  O   H1  H2  O   H1  H2  O   H1  H2  O   
H1  H2  O   H1  H2  O   H1  H2  O   H1  H2  O   H1  H2  O   H1  H2  O   H1  H2  
O   H1  H2  O   H1  H2  O   H1  H2  O   H1  H2  O   H1  H2  O   H1  H2  O   H1  
H2  O   H1  H2  O   H1  H2  O   H1  H2  O   H1  H2  O   H1  H2  O   H1  H2  O   
H1  H2  O   H1  H2  O   H1  H2  O   H1  H2  O   H1  H2  O   H1  H2  O   H1  H2  
O   H1  H2  O   H1  H2  O   H1  H2  O   H1  H2  O   H1  H2  O   H1  H2  O   H1  
H2  O   H1  H2  O   H1  H2  O   H1  H2  O   H1  H2  O   H1  H2  O   H1  H2  O   
H1  H2  O   H1  H2  O   H1  H2  O   H1  H2  O   H1  H2  O   H1  H2  O   H1  H2  
O   H1  H2  O   H1  H2  O   H1  H2  O   H1  H2  O   H1  H2  O   H1  H2  O   H1  
H2  O   H1  H2  O   H1  H2  O   H1  H2  O   H1  H2  O   H1  H2  O   H1  H2  O   
H1  H2  O   H1  H2  O   H1  H2  O   H1  H2  O   H1  H2  O   H1  H2  O   H1  H2  
O   H1  H2  O   H1  H2  O   H1  H2  O   H1  H2  O   H1  H2  O   H1  H2  O   H1  
H2  O   H1  H2  O   H1  H2  O   H1  H2  O   H1  H2  O   H1  H2  O   H1  H2  O   
H1  H2  O   H1  H2  O   H1  H2  O   H1  H2  O   H1  H2  O   H1  H2  
%FLAG CHARGE                                                                    
%FORMAT(5E16.8)                                                                 
 -6.21420519E+00 -3.90221443E+00 -3.74650488E-02 -5.39753637E+00 -5.39753637E+00
 -3.74650488E-02 -3.90221443E+00 -6.21420519E+00 -3.90221443E+00 -3.74650488E-02
 -5.39753637E+00 -5.39753637E+00 -3.74650488E-02 -3.90221443E+00  1.65422039E+00
  1.65422039E+00  4.93817041E+00  4.41327706E+00  4.73484599E+00  4.73484599E+00
  4.41327706E+00  4.93817041E+00  4.41327706E+00  4.73484599E+00  4.73484599E+00
  4.41327706E+00 -7.32694083E+00  3.13350671E+00  3.13350671E+00 -8.31850728E+00
  4.72026815E+00  5.65802415E-02  1.47683541E+00  5.65802415E-02 -7.38968932E-01
 -1.93711249E+00 -1.49838328E+00 -7.38968932E-01 -2.99703990E+00  1.47683541E+00
  1.24995867E+00 -2.34794336E-01 -2.49153508E-01 -1.16934321E+00  3.56482855E-01
 -5.08210836E+00 -7.69053949E-01 -1.84865234E-01 -8.85550935E+00  8.11949243E-01
  9.46101816E-01 -1.08842891E+01 -5.61011772E+00  4.30228503E+00 -1.10303409E+01
 -2.69453150E-01 -1.14920757E+01  4.72026815E+00 -8.31850728E+00  1.76653354E+00
  2.16713258E+00  1.04561380E+00  1.04561380E+00  1.76653354E+00  2.16713258E+00
  9.40398236E-01  9.40398236E-01  5.66932198E-01  5.66932198E-01  6.40112954E-01
  6.40112954E-01  1.02405682E+00  1.02405682E+00  2.48758084E+00  2.73688013E+00
  6.83959453E+00  2.03167712E+00  1.63659943E+00  1.63659943E+00  6.75642795E+00
  1.95532568E+00  8.13197471E+00  2.55369134E+00  8.19646343E+00 -8.31850728E+00
  4.72026815E+00  5.65802415E-02  1.47683541E+00  5.65802415E-02 -7.38968932E-01
 -2.99703990E+00 -1.49838328E+00 -7.38968932E-01 -2.99703990E+00  1.47683541E+00
  1.24995867E+00 -2.34794336E-01 -2.49153508E-01 -1.16934321E+00  3.56482855E-01
 -5.08210836E+00 -7.69053949E-01 -1.84865234E-01 -8.85550935E+00  8.11949243E-01
  9.46101816E-01 -1.08842891E+01 -5.61011772E+00  4.30228503E+00 -1.10303409E+01
 -2.69453150E-01 -1.14920757E+01  4.72026815E+00 -8.31850728E+00  1.76653354E+00
  2.16713258E+00  1.04561380E+00  1.04561380E+00  1.76653354E+00  2.16713258E+00
  9.40398236E-01  9.40398236E-01  5.66932198E-01  5.66932198E-01  6.40112954E-01
  6.40112954E-01  1.02405682E+00  1.02405682E+00  2.48758084E+00  2.73688013E+00
  6.83959453E+00  2.03167712E+00  1.63659943E+00  1.63659943E+00  6.75642795E+00
  1.95532568E+00  8.13197471E+00  2.55369134E+00  8.19646343E+00 -8.31850728E+00
  4.72026815E+00  5.65802415E-02  1.47683541E+00  5.65802415E-02 -7.38968932E-01
 -2.99703990E+00 -1.49838328E+00 -7.38968932E-01 -2.99703990E+00  1.47683541E+00
  1.24995867E+00 -2.34794336E-01 -2.49153508E-01 -1.16934321E+00  3.56482855E-01
 -5.08210836E+00 -7.69053949E-01 -1.84865234E-01 -8.85550935E+00  8.11949243E-01
  9.46101816E-01 -1.08842891E+01 -5.61011772E+00  4.30228503E+00 -1.10303409E+01
 -2.69453150E-01 -1.14920757E+01  4.72026815E+00 -8.31850728E+00  1.76653354E+00
  2.16713258E+00  1.04561380E+00  1.04561380E+00  1.76653354E+00  2.16713258E+00
  9.40398236E-01  9.40398236E-01  5.66932198E-01  5.66932198E-01  6.40112954E-01
  6.40112954E-01  1.02405682E+00  1.02405682E+00  2.48758084E+00  2.73688013E+00
  6.83959453E+00  2.03167712E+00  1.63659943E+00  1.63659943E+00  6.75642795E+00
  1.95532568E+00  8.13197471E+00  2.55369134E+00  8.19646343E+00 -8.31850728E+00
  4.72026815E+00  5.65802415E-02  1.47683541E+00  5.65802415E-02 -7.38968932E-01
 -2.99703990E+00 -1.49838328E+00 -7.38968932E-01 -2.99703990E+00  1.47683541E+00
  1.24995867E+00 -2.34794336E-01 -2.49153508E-01 -1.16934321E+00  3.56482855E-01
 -5.08210836E+00 -7.69053949E-01 -1.84865234E-01 -8.85550935E+00  8.11949243E-01
  9.46101816E-01 -1.08842891E+01 -5.61011772E+00  4.30228503E+00 -1.10303409E+01
 -2.69453150E-01 -1.14920757E+01  4.72026815E+00 -8.31850728E+00  1.76653354E+00
  2.16713258E+00  1.04561380E+00  1.04561380E+00  1.76653354E+00  2.16713258E+00
  9.40398236E-01  9.40398236E-01  5.66932198E-01  5.66932198E-01  6.40112954E-01
  6.40112954E-01  1.02405682E+00  1.02405682E+00  2.48758084E+00  2.73688013E+00
  6.83959453E+00  2.03167712E+00  1.63659943E+00  1.63659943E+00  6.75642795E+00
  1.95532568E+00  8.13197471E+00  2.55369134E+00  8.19646343E+00 -8.31850728E+00
  4.72026815E+00  5.65802415E-02  1.47683541E+00  5.65802415E-02 -7.38968932E-01
 -2.99703990E+00 -1.49838328E+00 -7.38968932E-01 -2.99703990E+00  1.47683541E+00
  1.24995867E+00 -2.34794336E-01 -2.49153508E-01 -1.16934321E+00  3.56482855E-01
 -5.08210836E+00 -7.69053949E-01 -1.84865234E-01 -8.85550935E+00  8.11949243E-01
  9.46101816E-01 -1.08842891E+01 -5.61011772E+00  4.30228503E+00 -1.10303409E+01
 -2.69453150E-01 -1.14920757E+01  4.72026815E+00 -8.31850728E+00  1.76653354E+00
  2.16713258E+00  1.04561380E+00  1.04561380E+00  1.76653354E+00  2.16713258E+00
  9.40398236E-01  9.40398236E-01  5.66932198E-01  5.66932198E-01  6.40112954E-01
  6.40112954E-01  1.02405682E+00  1.02405682E+00  2.48758084E+00  2.73688013E+00
  6.83959453E+00  2.03167712E+00  1.63659943E+00  1.63659943E+00  6.75642795E+00
  1.95532568E+00  8.13197471E+00  2.55369134E+00  8.19646343E+00 -8.31850728E+00
  4.72026815E+00  5.65802415E-02  1.47683541E+00  5.65802415E-02 -7.38968932E-01
 -2.99703990E+00 -1.49838328E+00 -7.38968932E-01 -2.99703990E+00  1.47683541E+00
  1.24995867E+00 -2.34794336E-01 -2.49153508E-01 -1.16934321E+00  3.56482855E-01
 -5.08210836E+00 -7.69053949E-01 -1.84865234E-01 -8.85550935E+00  8.11949243E-01
  9.46101816E-01 -1.08842891E+01 -5.61011772E+00  4.30228503E+00 -1.10303409E+01
 -2.69453150E-01 -1.14920757E+01  4.72026815E+00 -8.31850728E+00  1.76653354E+00
  2.16713258E+00  1.04561380E+00  1.04561380E+00  1.76653354E+00  2.16713258E+00
  9.40398236E-01  9.40398236E-01  5.66932198E-01  5.66932198E-01  6.40112954E-01
  6.40112954E-01  1.02405682E+00  1.02405682E+00  2.48758084E+00  2.73688013E+00
  6.83959453E+00  2.03167712E+00  1.63659943E+00  1.63659943E+00  6.75642795E+00
  1.95532568E+00  8.13197471E+00  2.55369134E+00  8.19646343E+00 -8.31850728E+00
  4.72026815E+00  5.65802415E-02  1.47683541E+00  5.65802415E-02 -7.38968932E-01
 -2.99703990E+00 -1.49838328E+00 -7.38968932E-01 -2.99703990E+00  1.47683541E+00
  1.24995867E+00 -2.34794336E-01 -2.49153508E-01 -1.16934321E+00  3.56482855E-01
 -5.08210836E+00 -7.69053949E-01 -1.84865234E-01 -8.85550935E+00  8.11949243E-01
  9.46101816E-01 -1.08842891E+01 -5.61011772E+00  4.30228503E+00 -1.10303409E+01
 -2.69453150E-01 -1.14920757E+01  4.72026815E+00 -8.31850728E+00  1.76653354E+00
  2.16713258E+00  1.04561380E+00  1.04561380E+00  1.76653354E+00  2.16713258E+00
  9.40398236E-01  9.40398236E-01  5.66932198E-01  5.66932198E-01  6.40112954E-01
  6.40112954E-01  1.02405682E+00  1.02405682E+00  2.48758084E+00  2.73688013E+00
  6.83959453E+00  2.03167712E+00  1.63659943E+00  1.63659943E+00  6.75642795E+00
  1.95532568E+00  8.13197471E+00  2.55369134E+00  8.19646343E+00 -8.31850728E+00
  4.72026815E+00  5.65802415E-02  1.47683541E+00  5.65802415E-02 -7.38968932E-01
 -2.99703990E+00 -1.49838328E+00 -7.38968932E-01 -2.99703990E+00  1.47683541E+00
  1.24995867E+00 -2.34794336E-01 -2.49153508E-01 -1.16934321E+00  3.56482855E-01
 -5.08210836E+00 -7.69053949E-01 -1.84865234E-01 -8.85550935E+00  8.11949243E-01
  9.46101816E-01 -1.08842891E+01 -5.61011772E+00  4.30228503E+00 -1.10303409E+01
 -2.69453150E-01 -1.14920757E+01  4.72026815E+00 -8.31850728E+00  1.76653354E+00
  2.16713258E+00  1.04561380E+00  1.04561380E+00  1.76653354E+00  2.16713258E+00
  9.40398236E-01  9.40398236E-01  5.66932198E-01  5.66932198E-01  6.40112954E-01
  6.40112954E-01  1.02405682E+00  1.02405682E+00  2.48758084E+00  2.73688013E+00
  6.83959453E+00  2.03167712E+00  1.63659943E+00  1.63659943E+00  6.75642795E+00
  1.95532568E+00  8.13197471E+00  2.55369134E+00  8.19646343E+00 -8.31850728E+00
  4.72026815E+00  5.65802415E-02  1.47683541E+00  5.65802415E-02 -7.38968932E-01
 -2.99703990E+00 -1.49838328E+00 -7.38968932E-01 -2.99703990E+00  1.47683541E+00
  1.24995867E+00 -2.34794336E-01 -2.49153508E-01 -1.16934321E+00  3.56482855E-01
 -5.08210836E+00 -7.69053949E-01 -1.84865234E-01 -8.85550935E+00  8.11949243E-01
  9.46101816E-01 -1.08842891E+01 -5.61011772E+00  4.30228503E+00 -1.10303409E+01
 -2.69453150E-01 -1.14920757E+01  4.72026815E+00 -8.31850728E+00  1.76653354E+00
  2.16713258E+00  1.04561380E+00  1.04561380E+00  1.76653354E+00  2.16713258E+00
  9.40398236E-01  9.40398236E-01  5.66932198E-01  5.66932198E-01  6.40112954E-01
  6.40112954E-01  1.02405682E+00  1.02405682E+00  2.48758084E+00  2.73688013E+00
  6.83959453E+00  2.03167712E+00  1.63659943E+00  1.63659943E+00  6.75642795E+00
  1.95532568E+00  8.13197471E+00  2.55369134E+00  8.19646343E+00 -8.31850728E+00
  4.72026815E+00  5.65802415E-02  1.47683541E+00  5.65802415E-02 -7.38968932E-01
 -2.99703990E+00 -1.49838328E+00 -7.38968932E-01 -1.93711249E+00  1.47683541E+00
  1.24995867E+00 -2.34794336E-01 -2.49153508E-01 -1.16934321E+00  3.56482855E-01
 -5.08210836E+00 -7.69053949E-01 -1.84865234E-01 -8.85550935E+00  8.11949243E-01
  9.46101816E-01 -1.08842891E+01 -5.61011772E+00  4.30228503E+00 -1.10303409E+01
 -2.69453150E-01 -1.14920757E+01  4.72026815E+00 -8.31850728E+00  1.76653354E+00
  2.16713258E+00  1.04561380E+00  1.04561380E+00  1.76653354E+00  2.16713258E+00
  9.40398236E-01  9.40398236E-01  5.66932198E-01  5.66932198E-01  6.40112954E-01
  6.40112954E-01  1.02405682E+00  1.02405682E+00  2.48758084E+00  2.73688013E+00
  6.83959453E+00  2.03167712E+00  1.63659943E+00  1.63659943E+00  6.75642795E+00
  1.95532568E+00  8.13197471E+00  2.55369134E+00  8.19646343E+00 -7.32694083E+00
  3.13350671E+00  3.13350671E+00 -7.32694083E+00  3.13350671E+00  3.13350671E+00
 -8.31850728E+00  4.72026815E+00  5.65802415E-02  1.47683541E+00  5.65802415E-02
 -7.38968932E-01 -1.93711249E+00 -1.49838328E+00 -7.38968932E-01 -2.99703990E+00
  1.47683541E+00  1.24995867E+00 -2.34794336E-01 -2.49153508E-01 -1.16934321E+00
  3.56482855E-01 -5.08210836E+00 -7.69053949E-01 -1.84865234E-01 -8.85550935E+00
  8.11949243E-01  9.46101816E-01 -1.08842891E+01 -5.61011772E+00  4.30228503E+00
 -1.10303409E+01 -2.69453150E-01 -1.14920757E+01  4.72026815E+00 -8.31850728E+00
  1.76653354E+00  2.16713258E+00  1.04561380E+00  1.04561380E+00  1.76653354E+00
  2.16713258E+00  9.40398236E-01  9.40398236E-01  5.66932198E-01  5.66932198E-01
  6.40112954E-01  6.40112954E-01  1.02405682E+00  1.02405682E+00  2.48758084E+00
  2.73688013E+00  6.83959453E+00  2.03167712E+00  1.63659943E+00  1.63659943E+00
  6.75642795E+00  1.95532568E+00  8.13197471E+00  2.55369134E+00  8.19646343E+00
 -8.31850728E+00  4.72026815E+00  5.65802415E-02  1.47683541E+00  5.65802415E-02
 -7.38968932E-01 -2.99703990E+00 -1.49838328E+00 -7.38968932E-01 -2.99703990E+00
  1.47683541E+00  1.24995867E+00 -2.34794336E-01 -2.49153508E-01 -1.16934321E+00
  3.56482855E-01 -5.08210836E+00 -7.69053949E-01 -1.84865234E-01 -8.85550935E+00
  8.11949243E-01  9.46101816E-01 -1.08842891E+01 -5.61011772E+00  4.30228503E+00
 -1.10303409E+01 -2.69453150E-01 -1.14920757E+01  4.72026815E+00 -8.31850728E+00
  1.76653354E+00  2.16713258E+00  1.04561380E+00  1.04561380E+00  1.76653354E+00
  2.16713258E+00  9.40398236E-01  9.40398236E-01  5.66932198E-01  5.66932198E-01
  6.40112954E-01  6.40112954E-01  1.02405682E+00  1.02405682E+00  2.48758084E+00
  2.73688013E+00  6.83959453E+00  2.03167712E+00  1.63659943E+00  1.63659943E+00
  6.75642795E+00  1.95532568E+00  8.13197471E+00  2.55369134E+00  8.19646343E+00
 -8.31850728E+00  4.72026815E+00  5.65802415E-02  1.47683541E+00  5.65802415E-02
 -7.38968932E-01 -2.99703990E+00 -1.49838328E+00 -7.38968932E-01 -2.99703990E+00
  1.47683541E+00  1.24995867E+00 -2.34794336E-01 -2.49153508E-01 -1.16934321E+00
  3.56482855E-01 -5.08210836E+00 -7.69053949E-01 -1.84865234E-01 -8.85550935E+00
  8.11949243E-01  9.46101816E-01 -1.08842891E+01 -5.61011772E+00  4.30228503E+00
 -1.10303409E+01 -2.69453150E-01 -1.14920757E+01  4.72026815E+00 -8.31850728E+00
  1.76653354E+00  2.16713258E+00  1.04561380E+00  1.04561380E+00  1.76653354E+00
  2.16713258E+00  9.40398236E-01  9.40398236E-01  5.66932198E-01  5.66932198E-01
  6.40112954E-01  6.40112954E-01  1.02405682E+00  1.02405682E+00  2.48758084E+00
  2.73688013E+00  6.83959453E+00  2.03167712E+00  1.63659943E+00  1.63659943E+00
  6.75642795E+00  1.95532568E+00  8.13197471E+00  2.55369134E+00  8.19646343E+00
 -8.31850728E+00  4.72026815E+00  5.65802415E-02  1.47683541E+00  5.65802415E-02
 -7.38968932E-01 -2.99703990E+00 -1.49838328E+00 -7.38968932E-01 -2.99703990E+00
  1.47683541E+00  1.24995867E+00 -2.34794336E-01 -2.49153508E-01 -1.16934321E+00
  3.56482855E-01 -5.08210836E+00 -7.69053949E-01 -1.84865234E-01 -8.85550935E+00
  8.11949243E-01  9.46101816E-01 -1.08842891E+01 -5.61011772E+00  4.30228503E+00
 -1.10303409E+01 -2.69453150E-01 -1.14920757E+01  4.72026815E+00 -8.31850728E+00
  1.76653354E+00  2.16713258E+00  1.04561380E+00  1.04561380E+00  1.76653354E+00
  2.16713258E+00  9.40398236E-01  9.40398236E-01  5.66932198E-01  5.66932198E-01
  6.40112954E-01  6.40112954E-01  1.02405682E+00  1.02405682E+00  2.48758084E+00
  2.73688013E+00  6.83959453E+00  2.03167712E+00  1.63659943E+00  1.63659943E+00
  6.75642795E+00  1.95532568E+00  8.13197471E+00  2.55369134E+00  8.19646343E+00
 -8.31850728E+00  4.72026815E+00  5.65802415E-02  1.47683541E+00  5.65802415E-02
 -7.38968932E-01 -2.99703990E+00 -1.49838328E+00 -7.38968932E-01 -2.99703990E+00
  1.47683541E+00  1.24995867E+00 -2.34794336E-01 -2.49153508E-01 -1.16934321E+00
  3.56482855E-01 -5.08210836E+00 -7.69053949E-01 -1.84865234E-01 -8.85550935E+00
  8.11949243E-01  9.46101816E-01 -1.08842891E+01 -5.61011772E+00  4.30228503E+00
 -1.10303409E+01 -2.69453150E-01 -1.14920757E+01  4.72026815E+00 -8.31850728E+00
  1.76653354E+00  2.16713258E+00  1.04561380E+00  1.04561380E+00  1.76653354E+00
  2.16713258E+00  9.40398236E-01  9.40398236E-01  5.66932198E-01  5.66932198E-01
  6.40112954E-01  6.40112954E-01  1.02405682E+00  1.02405682E+00  2.48758084E+00
  2.73688013E+00  6.83959453E+00  2.03167712E+00  1.63659943E+00  1.63659943E+00
  6.75642795E+00  1.95532568E+00  8.13197471E+00  2.55369134E+00  8.19646343E+00
 -8.31850728E+00  4.72026815E+00  5.65802415E-02  1.47683541E+00  5.65802415E-02
 -7.38968932E-01 -2.99703990E+00 -1.49838328E+00 -7.38968932E-01 -2.99703990E+00
  1.47683541E+00  1.24995867E+00 -2.34794336E-01 -2.49153508E-01 -1.16934321E+00
  3.56482855E-01 -5.08210836E+00 -7.69053949E-01 -1.84865234E-01 -8.85550935E+00
  8.11949243E-01  9.46101816E-01 -1.08842891E+01 -5.61011772E+00  4.30228503E+00
 -1.10303409E+01 -2.69453150E-01 -1.14920757E+01  4.72026815E+00 -8.31850728E+00
  1.76653354E+00  2.16713258E+00  1.04561380E+00  1.04561380E+00  1.76653354E+00
  2.16713258E+00  9.40398236E-01  9.40398236E-01  5.66932198E-01  5.66932198E-01
  6.40112954E-01  6.40112954E-01  1.02405682E+00  1.02405682E+00  2.48758084E+00
  2.73688013E+00  6.83959453E+00  2.03167712E+00  1.63659943E+00  1.63659943E+00
  6.75642795E+00  1.95532568E+00  8.13197471E+00  2.55369134E+00  8.19646343E+00
 -8.31850728E+00  4.72026815E+00  5.65802415E-02  1.47683541E+00  5.65802415E-02
 -7.38968932E-01 -2.99703990E+00 -1.49838328E+00 -7.38968932E-01 -2.99703990E+00
  1.47683541E+00  1.24995867E+00 -2.34794336E-01 -2.49153508E-01 -1.16934321E+00
  3.56482855E-01 -5.08210836E+00 -7.69053949E-01 -1.84865234E-01 -8.85550935E+00
  8.11949243E-01  9.46101816E-01 -1.08842891E+01 -5.61011772E+00  4.30228503E+00
 -1.10303409E+01 -2.69453150E-01 -1.14920757E+01  4.72026815E+00 -8.31850728E+00
  1.76653354E+00  2.16713258E+00  1.04561380E+00  1.04561380E+00  1.76653354E+00
  2.16713258E+00  9.40398236E-01  9.40398236E-01  5.66932198E-01  5.66932198E-01
  6.40112954E-01  6.40112954E-01  1.02405682E+00  1.02405682E+00  2.48758084E+00
  2.73688013E+00  6.83959453E+00  2.03167712E+00  1.63659943E+00  1.63659943E+00
  6.75642795E+00  1.95532568E+00  8.13197471E+00  2.55369134E+00  8.19646343E+00
 -8.31850728E+00  4.72026815E+00  5.65802415E-02  1.47683541E+00  5.65802415E-02
 -7.38968932E-01 -2.99703990E+00 -1.49838328E+00 -7.38968932E-01 -2.99703990E+00
  1.47683541E+00  1.24995867E+00 -2.34794336E-01 -2.49153508E-01 -1.16934321E+00
  3.56482855E-01 -5.08210836E+00 -7.69053949E-01 -1.84865234E-01 -8.85550935E+00
  8.11949243E-01  9.46101816E-01 -1.08842891E+01 -5.61011772E+00  4.30228503E+00
 -1.10303409E+01 -2.69453150E-01 -1.14920757E+01  4.72026815E+00 -8.31850728E+00
  1.76653354E+00  2.16713258E+00  1.04561380E+00  1.04561380E+00  1.76653354E+00
  2.16713258E+00  9.40398236E-01  9.40398236E-01  5.66932198E-01  5.66932198E-01
  6.40112954E-01  6.40112954E-01  1.02405682E+00  1.02405682E+00  2.48758084E+00
  2.73688013E+00  6.83959453E+00  2.03167712E+00  1.63659943E+00  1.63659943E+00
  6.75642795E+00  1.95532568E+00  8.13197471E+00  2.55369134E+00  8.19646343E+00
 -8.31850728E+00  4.72026815E+00  5.65802415E-02  1.47683541E+00  5.65802415E-02
 -7.38968932E-01 -2.99703990E+00 -1.49838328E+00 -7.38968932E-01 -2.99703990E+00
  1.47683541E+00  1.24995867E+00 -2.34794336E-01 -2.49153508E-01 -1.16934321E+00
  3.56482855E-01 -5.08210836E+00 -7.69053949E-01 -1.84865234E-01 -8.85550935E+00
  8.11949243E-01  9.46101816E-01 -1.08842891E+01 -5.61011772E+00  4.30228503E+00
 -1.10303409E+01 -2.69453150E-01 -1.14920757E+01  4.72026815E+00 -8.31850728E+00
  1.76653354E+00  2.16713258E+00  1.04561380E+00  1.04561380E+00  1.76653354E+00
  2.16713258E+00  9.40398236E-01  9.40398236E-01  5.66932198E-01  5.66932198E-01
  6.40112954E-01  6.40112954E-01  1.02405682E+00  1.02405682E+00  2.48758084E+00
  2.73688013E+00  6.83959453E+00  2.03167712E+00  1.63659943E+00  1.63659943E+00
  6.75642795E+00  1.95532568E+00  8.13197471E+00  2.55369134E+00  8.19646343E+00
 -8.31850728E+00  4.72026815E+00  5.65802415E-02  1.47683541E+00  5.65802415E-02
 -7.38968932E-01 -2.99703990E+00 -1.49838328E+00 -7.38968932E-01 -1.93711249E+00
  1.47683541E+00  1.24995867E+00 -2.34794336E-01 -2.49153508E-01 -1.16934321E+00
  3.56482855E-01 -5.08210836E+00 -7.69053949E-01 -1.84865234E-01 -8.85550935E+00
  8.11949243E-01  9.46101816E-01 -1.08842891E+01 -5.61011772E+00  4.30228503E+00
 -1.10303409E+01 -2.69453150E-01 -1.14920757E+01  4.72026815E+00 -8.31850728E+00
  1.76653354E+00  2.16713258E+00  1.04561380E+00  1.04561380E+00  1.76653354E+00
  2.16713258E+00  9.40398236E-01  9.40398236E-01  5.66932198E-01  5.66932198E-01
  6.40112954E-01  6.40112954E-01  1.02405682E+00  1.02405682E+00  2.48758084E+00
  2.73688013E+00  6.83959453E+00  2.03167712E+00  1.63659943E+00  1.63659943E+00
  6.75642795E+00  1.95532568E+00  8.13197471E+00  2.55369134E+00  8.19646343E+00
 -7.32694083E+00  3.13350671E+00  3.13350671E+00 -7.32694083E+00  3.13350671E+00
  3.13350671E+00 -8.31850728E+00  4.72026815E+00  5.65802415E-02  1.47683541E+00
  5.65802415E-02 -7.38968932E-01 -1.93711249E+00 -1.49838328E+00 -7.38968932E-01
 -2.99703990E+00  1.47683541E+00  1.24995867E+00 -2.34794336E-01 -2.49153508E-01
 -1.16934321E+00  3.56482855E-01 -5.08210836E+00 -7.69053949E-01 -1.84865234E-01
 -8.85550935E+00  8.11949243E-01  9.46101816E-01 -1.08842891E+01 -5.61011772E+00
  4.30228503E+00 -1.10303409E+01 -2.69453150E-01 -1.14920757E+01  4.72026815E+00
 -8.31850728E+00  1.76653354E+00  2.16713258E+00  1.04561380E+00  1.04561380E+00
  1.76653354E+00  2.16713258E+00  9.40398236E-01  9.40398236E-01  5.66932198E-01
  5.66932198E-01  6.40112954E-01  6.40112954E-01  1.02405682E+00  1.02405682E+00
  2.48758084E+00  2.73688013E+00  6.83959453E+00  2.03167712E+00  1.63659943E+00
  1.63659943E+00  6.75642795E+00  1.95532568E+00  8.13197471E+00  2.55369134E+00
  8.19646343E+00 -8.31850728E+00  4.72026815E+00  5.65802415E-02  1.47683541E+00
  5.65802415E-02 -7.38968932E-01 -2.99703990E+00 -1.49838328E+00 -7.38968932E-01
 -2.99703990E+00  1.47683541E+00  1.24995867E+00 -2.34794336E-01 -2.49153508E-01
 -1.16934321E+00  3.56482855E-01 -5.08210836E+00 -7.69053949E-01 -1.84865234E-01
 -8.85550935E+00  8.11949243E-01  9.46101816E-01 -1.08842891E+01 -5.61011772E+00
  4.30228503E+00 -1.10303409E+01 -2.69453150E-01 -1.14920757E+01  4.72026815E+00
 -8.31850728E+00  1.76653354E+00  2.16713258E+00  1.04561380E+00  1.04561380E+00
  1.76653354E+00  2.16713258E+00  9.40398236E-01  9.40398236E-01  5.66932198E-01
  5.66932198E-01  6.40112954E-01  6.40112954E-01  1.02405682E+00  1.02405682E+00
  2.48758084E+00  2.73688013E+00  6.83959453E+00  2.03167712E+00  1.63659943E+00
  1.63659943E+00  6.75642795E+00  1.95532568E+00  8.13197471E+00  2.55369134E+00
  8.19646343E+00 -8.31850728E+00  4.72026815E+00  5.65802415E-02  1.47683541E+00
  5.65802415E-02 -7.38968932E-01 -2.99703990E+00 -1.49838328E+00 -7.38968932E-01
 -2.99703990E+00  1.47683541E+00  1.24995867E+00 -2.34794336E-01 -2.49153508E-01
 -1.16934321E+00  3.56482855E-01 -5.08210836E+00 -7.69053949E-01 -1.84865234E-01
 -8.85550935E+00  8.11949243E-01  9.46101816E-01 -1.08842891E+01 -5.61011772E+00
  4.30228503E+00 -1.10303409E+01 -2.69453150E-01 -1.14920757E+01  4.72026815E+00
 -8.31850728E+00  1.76653354E+00  2.16713258E+00  1.04561380E+00  1.04561380E+00
  1.76653354E+00  2.16713258E+00  9.40398236E-01  9.40398236E-01  5.66932198E-01
  5.66932198E-01  6.40112954E-01  6.40112954E-01  1.02405682E+00  1.02405682E+00
  2.48758084E+00  2.73688013E+00  6.83959453E+00  2.03167712E+00  1.63659943E+00
  1.63659943E+00  6.75642795E+00  1.95532568E+00  8.13197471E+00  2.55369134E+00
  8.19646343E+00 -8.31850728E+00  4.72026815E+00  5.65802415E-02  1.47683541E+00
  5.65802415E-02 -7.38968932E-01 -2.99703990E+00 -1.49838328E+00 -7.38968932E-01
 -2.99703990E+00  1.47683541E+00  1.24995867E+00 -2.34794336E-01 -2.49153508E-01
 -1.16934321E+00  3.56482855E-01 -5.08210836E+00 -7.69053949E-01 -1.84865234E-01
 -8.85550935E+00  8.11949243E-01  9.46101816E-01 -1.08842891E+01 -5.61011772E+00
  4.30228503E+00 -1.10303409E+01 -2.69453150E-01 -1.14920757E+01  4.72026815E+00
 -8.31850728E+00  1.76653354E+00  2.16713258E+00  1.04561380E+00  1.04561380E+00
  1.76653354E+00  2.16713258E+00  9.40398236E-01  9.40398236E-01  5.66932198E-01
  5.66932198E-01  6.40112954E-01  6.40112954E-01  1.02405682E+00  1.02405682E+00
  2.48758084E+00  2.73688013E+00  6.83959453E+00  2.03167712E+00  1.63659943E+00
  1.63659943E+00  6.75642795E+00  1.95532568E+00  8.13197471E+00  2.55369134E+00
  8.19646343E+00 -8.31850728E+00  4.72026815E+00  5.65802415E-02  1.47683541E+00
  5.65802415E-02 -7.38968932E-01 -2.99703990E+00 -1.49838328E+00 -7.38968932E-01
 -2.99703990E+00  1.47683541E+00  1.24995867E+00 -2.34794336E-01 -2.49153508E-01
 -1.16934321E+00  3.56482855E-01 -5.08210836E+00 -7.69053949E-01 -1.84865234E-01
 -8.85550935E+00  8.11949243E-01  9.46101816E-01 -1.08842891E+01 -5.61011772E+00
  4.30228503E+00 -1.10303409E+01 -2.69453150E-01 -1.14920757E+01  4.72026815E+00
 -8.31850728E+00  1.76653354E+00  2.16713258E+00  1.04561380E+00  1.04561380E+00
  1.76653354E+00  2.16713258E+00  9.40398236E-01  9.40398236E-01  5.66932198E-01
  5.66932198E-01  6.40112954E-01  6.40112954E-01  1.02405682E+00  1.02405682E+00
  2.48758084E+00  2.73688013E+00  6.83959453E+00  2.03167712E+00  1.63659943E+00
  1.63659943E+00  6.75642795E+00  1.95532568E+00  8.13197471E+00  2.55369134E+00
  8.19646343E+00 -8.31850728E+00  4.72026815E+00  5.65802415E-02  1.47683541E+00
  5.65802415E-02 -7.38968932E-01 -2.99703990E+00 -1.49838328E+00 -7.38968932E-01
 -2.99703990E+00  1.47683541E+00  1.24995867E+00 -2.34794336E-01 -2.49153508E-01
 -1.16934321E+00  3.56482855E-01 -5.08210836E+00 -7.69053949E-01 -1.84865234E-01
 -8.85550935E+00  8.11949243E-01  9.46101816E-01 -1.08842891E+01 -5.61011772E+00
  4.30228503E+00 -1.10303409E+01 -2.69453150E-01 -1.14920757E+01  4.72026815E+00
 -8.31850728E+00  1.76653354E+00  2.16713258E+00  1.04561380E+00  1.04561380E+00
  1.76653354E+00  2.16713258E+00  9.40398236E-01  9.40398236E-01  5.66932198E-01
  5.66932198E-01  6.40112954E-01  6.40112954E-01  1.02405682E+00  1.02405682E+00
  2.48758084E+00  2.73688013E+00  6.83959453E+00  2.03167712E+00  1.63659943E+00
  1.63659943E+00  6.75642795E+00  1.95532568E+00  8.13197471E+00  2.55369134E+00
  8.19646343E+00 -8.31850728E+00  4.72026815E+00  5.65802415E-02  1.47683541E+00
  5.65802415E-02 -7.38968932E-01 -2.99703990E+00 -1.49838328E+00 -7.38968932E-01
 -2.99703990E+00  1.47683541E+00  1.24995867E+00 -2.34794336E-01 -2.49153508E-01
 -1.16934321E+00  3.56482855E-01 -5.08210836E+00 -7.69053949E-01 -1.84865234E-01
 -8.85550935E+00  8.11949243E-01  9.46101816E-01 -1.08842891E+01 -5.61011772E+00
  4.30228503E+00 -1.10303409E+01 -2.69453150E-01 -1.14920757E+01  4.72026815E+00
 -8.31850728E+00  1.76653354E+00  2.16713258E+00  1.04561380E+00  1.04561380E+00
  1.76653354E+00  2.16713258E+00  9.40398236E-01  9.40398236E-01  5.66932198E-01
  5.66932198E-01  6.40112954E-01  6.40112954E-01  1.02405682E+00  1.02405682E+00
  2.48758084E+00  2.73688013E+00  6.83959453E+00  2.03167712E+00  1.63659943E+00
  1.63659943E+00  6.75642795E+00  1.95532568E+00  8.13197471E+00  2.55369134E+00
  8.19646343E+00 -8.31850728E+00  4.72026815E+00  5.65802415E-02  1.47683541E+00
  5.65802415E-02 -7.38968932E-01 -2.99703990E+00 -1.49838328E+00 -7.38968932E-01
 -2.99703990E+00  1.47683541E+00  1.24995867E+00 -2.34794336E-01 -2.49153508E-01
 -1.16934321E+00  3.56482855E-01 -5.08210836E+00 -7.69053949E-01 -1.84865234E-01
 -8.85550935E+00  8.11949243E-01  9.46101816E-01 -1.08842891E+01 -5.61011772E+00
  4.30228503E+00 -1.10303409E+01 -2.69453150E-01 -1.14920757E+01  4.72026815E+00
 -8.31850728E+00  1.76653354E+00  2.16713258E+00  1.04561380E+00  1.04561380E+00
  1.76653354E+00  2.16713258E+00  9.40398236E-01  9.40398236E-01  5.66932198E-01
  5.66932198E-01  6.40112954E-01  6.40112954E-01  1.02405682E+00  1.02405682E+00
  2.48758084E+00  2.73688013E+00  6.83959453E+00  2.03167712E+00  1.63659943E+00
  1.63659943E+00  6.75642795E+00  1.95532568E+00  8.13197471E+00  2.55369134E+00
  8.19646343E+00 -8.31850728E+00  4.72026815E+00  5.65802415E-02  1.47683541E+00
  5.65802415E-02 -7.38968932E-01 -2.99703990E+00 -1.49838328E+00 -7.38968932E-01
 -2.99703990E+00  1.47683541E+00  1.24995867E+00 -2.34794336E-01 -2.49153508E-01
 -1.16934321E+00  3.56482855E-01 -5.08210836E+00 -7.69053949E-01 -1.84865234E-01
 -8.85550935E+00  8.11949243E-01  9.46101816E-01 -1.08842891E+01 -5.61011772E+00
  4.30228503E+00 -1.10303409E+01 -2.69453150E-01 -1.14920757E+01  4.72026815E+00
 -8.31850728E+00  1.76653354E+00  2.16713258E+00  1.04561380E+00  1.04561380E+00
  1.76653354E+00  2.16713258E+00  9.40398236E-01  9.40398236E-01  5.66932198E-01
  5.66932198E-01  6.40112954E-01  6.40112954E-01  1.02405682E+00  1.02405682E+00
  2.48758084E+00  2.73688013E+00  6.83959453E+00  2.03167712E+00  1.63659943E+00
  1.63659943E+00  6.75642795E+00  1.95532568E+00  8.13197471E+00  2.55369134E+00
  8.19646343E+00 -8.31850728E+00  4.72026815E+00  5.65802415E-02  1.47683541E+00
  5.65802415E-02 -7.38968932E-01 -2.99703990E+00 -1.49838328E+00 -7.38968932E-01
 -1.93711249E+00  1.47683541E+00  1.24995867E+00 -2.34794336E-01 -2.49153508E-01
 -1.16934321E+00  3.56482855E-01 -5.08210836E+00 -7.69053949E-01 -1.84865234E-01
 -8.85550935E+00  8.11949243E-01  9.46101816E-01 -1.08842891E+01 -5.61011772E+00
  4.30228503E+00 -1.10303409E+01 -2.69453150E-01 -1.14920757E+01  4.72026815E+00
 -8.31850728E+00  1.76653354E+00  2.16713258E+00  1.04561380E+00  1.04561380E+00
  1.76653354E+00  2.16713258E+00  9.40398236E-01  9.40398236E-01  5.66932198E-01
  5.66932198E-01  6.40112954E-01  6.40112954E-01  1.02405682E+00  1.02405682E+00
  2.48758084E+00  2.73688013E+00  6.83959453E+00  2.03167712E+00  1.63659943E+00
  1.63659943E+00  6.75642795E+00  1.95532568E+00  8.13197471E+00  2.55369134E+00
  8.19646343E+00 -7.32694083E+00  3.13350671E+00  3.13350671E+00 -1.51973982E+01
  7.59869910E+00  7.59869910E+00 -1.51973982E+01  7.59869910E+00  7.59869910E+00
 -1.51973982E+01  7.59869910E+00  7.59869910E+00 -1.51973982E+01  7.59869910E+00
  7.59869910E+00 -1.51973982E+01  7.59869910E+00  7.59869910E+00 -1.51973982E+01
  7.59869910E+00  7.59869910E+00 -1.51973982E+01  7.59869910E+00  7.59869910E+00
 -1.51973982E+01  7.59869910E+00  7.59869910E+00 -1.51973982E+01  7.59869910E+00
  7.59869910E+00 -1.51973982E+01  7.59869910E+00  7.59869910E+00 -1.51973982E+01
  7.59869910E+00  7.59869910E+00 -1.51973982E+01  7.59869910E+00  7.59869910E+00
 -1.51973982E+01  7.59869910E+00  7.59869910E+00 -1.51973982E+01  7.59869910E+00
  7.59869910E+00 -1.51973982E+01  7.59869910E+00  7.59869910E+00 -1.51973982E+01
  7.59869910E+00  7.59869910E+00 -1.51973982E+01  7.59869910E+00  7.59869910E+00
 -1.51973982E+01  7.59869910E+00  7.59869910E+00 -1.51973982E+01  7.59869910E+00
  7.59869910E+00 -1.51973982E+01  7.59869910E+00  7.59869910E+00 -1.51973982E+01
  7.59869910E+00  7.59869910E+00 -1.51973982E+01  7.59869910E+00  7.59869910E+00
 -1.51973982E+01  7.59869910E+00  7.59869910E+00 -1.51973982E+01  7.59869910E+00
  7.59869910E+00 -1.51973982E+01  7.59869910E+00  7.59869910E+00 -1.51973982E+01
  7.59869910E+00  7.59869910E+00 -1.51973982E+01  7.59869910E+00  7.59869910E+00
 -1.51973982E+01  7.59869910E+00  7.59869910E+00 -1.51973982E+01  7.59869910E+00
  7.59869910E+00 -1.51973982E+01  7.59869910E+00  7.59869910E+00 -1.51973982E+01
  7.59869910E+00  7.59869910E+00 -1.51973982E+01  7.59869910E+00  7.59869910E+00
 -1.51973982E+01  7.59869910E+00  7.59869910E+00 -1.51973982E+01  7.59869910E+00
  7.59869910E+00 -1.51973982E+01  7.59869910E+00  7.59869910E+00 -1.51973982E+01
  7.59869910E+00  7.59869910E+00 -1.51973982E+01  7.59869910E+00  7.59869910E+00
 -1.51973982E+01  7.59869910E+00  7.59869910E+00 -1.51973982E+01  7.59869910E+00
  7.59869910E+00 -1.51973982E+01  7.59869910E+00  7.59869910E+00 -1.51973982E+01
  7.59869910E+00  7.59869910E+00 -1.51973982E+01  7.59869910E+00  7.59869910E+00
 -1.51973982E+01  7.59869910E+00  7.59869910E+00 -1.51973982E+01  7.59869910E+00
  7.59869910E+00 -1.51973982E+01  7.59869910E+00  7.59869910E+00 -1.51973982E+01
  7.59869910E+00  7.59869910E+00 -1.51973982E+01  7.59869910E+00  7.59869910E+00
 -1.51973982E+01  7.59869910E+00  7.59869910E+00 -1.51973982E+01  7.59869910E+00
  7.59869910E+00 -1.51973982E+01  7.59869910E+00  7.59869910E+00 -1.51973982E+01
  7.59869910E+00  7.59869910E+00 -1.51973982E+01  7.59869910E+00  7.59869910E+00
 -1.51973982E+01  7.59869910E+00  7.59869910E+00 -1.51973982E+01  7.59869910E+00
  7.59869910E+00 -1.51973982E+01  7.59869910E+00  7.59869910E+00 -1.51973982E+01
  7.59869910E+00  7.59869910E+00 -1.51973982E+01  7.59869910E+00  7.59869910E+00
 -1.51973982E+01  7.59869910E+00  7.59869910E+00 -1.51973982E+01  7.59869910E+00
  7.59869910E+00 -1.51973982E+01  7.59869910E+00  7.59869910E+00 -1.51973982E+01
  7.59869910E+00  7.59869910E+00 -1.51973982E+01  7.59869910E+00  7.59869910E+00
 -1.51973982E+01  7.59869910E+00  7.59869910E+00 -1.51973982E+01  7.59869910E+00
  7.59869910E+00 -1.51973982E+01  7.59869910E+00  7.59869910E+00 -1.51973982E+01
  7.59869910E+00  7.59869910E+00 -1.51973982E+01  7.59869910E+00  7.59869910E+00
 -1.51973982E+01  7.59869910E+00  7.59869910E+00 -1.51973982E+01  7.59869910E+00
  7.59869910E+00 -1.51973982E+01  7.59869910E+00  7.59869910E+00 -1.51973982E+01
  7.59869910E+00  7.59869910E+00 -1.51973982E+01  7.59869910E+00  7.59869910E+00
 -1.51973982E+01  7.59869910E+00  7.59869910E+00 -1.51973982E+01  7.59869910E+00
  7.59869910E+00 -1.51973982E+01  7.59869910E+00  7.59869910E+00 -1.51973982E+01
  7.59869910E+00  7.59869910E+00 -1.51973982E+01  7.59869910E+00  7.59869910E+00
 -1.51973982E+01  7.59869910E+00  7.59869910E+00 -1.51973982E+01  7.59869910E+00
  7.59869910E+00 -1.51973982E+01  7.59869910E+00  7.59869910E+00 -1.51973982E+01
  7.59869910E+00  7.59869910E+00 -1.51973982E+01  7.59869910E+00  7.59869910E+00
 -1.51973982E+01  7.59869910E+00  7.59869910E+00 -1.51973982E+01  7.59869910E+00
  7.59869910E+00 -1.51973982E+01  7.59869910E+00  7.59869910E+00 -1.51973982E+01
  7.59869910E+00  7.59869910E+00 -1.51973982E+01  7.59869910E+00  7.59869910E+00
 -1.51973982E+01  7.59869910E+00  7.59869910E+00 -1.51973982E+01  7.59869910E+00
  7.59869910E+00 -1.51973982E+01  7.59869910E+00  7.59869910E+00 -1.51973982E+01
  7.59869910E+00  7.59869910E+00 -1.51973982E+01  7.59869910E+00  7.59869910E+00
 -1.51973982E+01  7.59869910E+00  7.59869910E+00 -1.51973982E+01  7.59869910E+00
  7.59869910E+00 -1.51973982E+01  7.59869910E+00  7.59869910E+00 -1.51973982E+01
  7.59869910E+00  7.59869910E+00 -1.51973982E+01  7.59869910E+00  7.59869910E+00
 -1.51973982E+01  7.59869910E+00  7.59869910E+00 -1.51973982E+01  7.59869910E+00
  7.59869910E+00 -1.51973982E+01  7.59869910E+00  7.59869910E+00 -1.51973982E+01
  7.59869910E+00  7.59869910E+00 -1.51973982E+01  7.59869910E+00  7.59869910E+00
 -1.51973982E+01  7.59869910E+00  7.59869910E+00 -1.51973982E+01  7.59869910E+00
  7.59869910E+00 -1.51973982E+01  7.59869910E+00  7.59869910E+00 -1.51973982E+01
  7.59869910E+00  7.59869910E+00 -1.51973982E+01  7.59869910E+00  7.59869910E+00
 -1.51973982E+01  7.59869910E+00  7.59869910E+00 -1.51973982E+01  7.59869910E+00
  7.59869910E+00 -1.51973982E+01  7.59869910E+00  7.59869910E+00 -1.51973982E+01
  7.59869910E+00  7.59869910E+00 -1.51973982E+01  7.59869910E+00  7.59869910E+00
 -1.51973982E+01  7.59869910E+00  7.59869910E+00 -1.51973982E+01  7.59869910E+00
  7.59869910E+00 -1.51973982E+01  7.59869910E+00  7.59869910E+00 -1.51973982E+01
  7.59869910E+00  7.59869910E+00 -1.51973982E+01  7.59869910E+00  7.59869910E+00
 -1.51973982E+01  7.59869910E+00  7.59869910E+00 -1.51973982E+01  7.59869910E+00
  7.59869910E+00 -1.51973982E+01  7.59869910E+00  7.59869910E+00 -1.51973982E+01
  7.59869910E+00  7.59869910E+00 -1.51973982E+01  7.59869910E+00  7.59869910E+00
 -1.51973982E+01  7.59869910E+00  7.59869910E+00 -1.51973982E+01  7.59869910E+00
  7.59869910E+00 -1.51973982E+01  7.59869910E+00  7.59869910E+00 -1.51973982E+01
  7.59869910E+00  7.59869910E+00 -1.51973982E+01  7.59869910E+00  7.59869910E+00
 -1.51973982E+01  7.59869910E+00  7.59869910E+00 -1.51973982E+01  7.59869910E+00
  7.59869910E+00 -1.51973982E+01  7.59869910E+00  7.59869910E+00 -1.51973982E+01
  7.59869910E+00  7.59869910E+00 -1.51973982E+01  7.59869910E+00  7.59869910E+00
 -1.51973982E+01  7.59869910E+00  7.59869910E+00 -1.51973982E+01  7.59869910E+00
  7.59869910E+00 -1.51973982E+01  7.59869910E+00  7.59869910E+00 -1.51973982E+01
  7.59869910E+00  7.59869910E+00 -1.51973982E+01  7.59869910E+00  7.59869910E+00
 -1.51973982E+01  7.59869910E+00  7.59869910E+00 -1.51973982E+01  7.59869910E+00
  7.59869910E+00 -1.51973982E+01  7.59869910E+00  7.59869910E+00 -1.51973982E+01
  7.59869910E+00  7.59869910E+00 -1.51973982E+01  7.59869910E+00  7.59869910E+00
 -1.51973982E+01  7.59869910E+00  7.59869910E+00 -1.51973982E+01  7.59869910E+00
  7.59869910E+00 -1.51973982E+01  7.59869910E+00  7.59869910E+00 -1.51973982E+01
  7.59869910E+00  7.59869910E+00 -1.51973982E+01  7.59869910E+00  7.59869910E+00
 -1.51973982E+01  7.59869910E+00  7.59869910E+00 -1.51973982E+01  7.59869910E+00
  7.59869910E+00 -1.51973982E+01  7.59869910E+00  7.59869910E+00 -1.51973982E+01
  7.59869910E+00  7.59869910E+00 -1.51973982E+01  7.59869910E+00  7.59869910E+00
 -1.51973982E+01  7.59869910E+00  7.59869910E+00 -1.51973982E+01  7.59869910E+00
  7.59869910E+00 -1.51973982E+01  7.59869910E+00  7.59869910E+00 -1.51973982E+01
  7.59869910E+00  7.59869910E+00 -1.51973982E+01  7.59869910E+00  7.59869910E+00
 -1.51973982E+01  7.59869910E+00  7.59869910E+00 -1.51973982E+01  7.59869910E+00
  7.59869910E+00 -1.51973982E+01  7.59869910E+00  7.59869910E+00 -1.51973982E+01
  7.59869910E+00  7.59869910E+00 -1.51973982E+01  7.59869910E+00  7.59869910E+00
 -1.51973982E+01  7.59869910E+00  7.59869910E+00 -1.51973982E+01  7.59869910E+00
  7.59869910E+00 -1.51973982E+01  7.59869910E+00  7.59869910E+00 -1.51973982E+01
  7.59869910E+00  7.59869910E+00 -1.51973982E+01  7.59869910E+00  7.59869910E+00
 -1.51973982E+01  7.59869910E+00  7.59869910E+00 -1.51973982E+01  7.59869910E+00
  7.59869910E+00 -1.51973982E+01  7.59869910E+00  7.59869910E+00 -1.51973982E+01
  7.59869910E+00  7.59869910E+00 -1.51973982E+01  7.59869910E+00  7.59869910E+00
 -1.51973982E+01  7.59869910E+00  7.59869910E+00 -1.51973982E+01  7.59869910E+00
  7.59869910E+00 -1.51973982E+01  7.59869910E+00  7.59869910E+00 -1.51973982E+01
  7.59869910E+00  7.59869910E+00 -1.51973982E+01  7.59869910E+00  7.59869910E+00
 -1.51973982E+01  7.59869910E+00  7.59869910E+00 -1.51973982E+01  7.59869910E+00
  7.59869910E+00 -1.51973982E+01  7.59869910E+00  7.59869910E+00 -1.51973982E+01
  7.59869910E+00  7.59869910E+00 -1.51973982E+01  7.59869910E+00  7.59869910E+00
 -1.51973982E+01  7.59869910E+00  7.59869910E+00 -1.51973982E+01  7.59869910E+00
  7.59869910E+00 -1.51973982E+01  7.59869910E+00  7.59869910E+00 -1.51973982E+01
  7.59869910E+00  7.59869910E+00 -1.51973982E+01  7.59869910E+00  7.59869910E+00
 -1.51973982E+01  7.59869910E+00  7.59869910E+00 -1.51973982E+01  7.59869910E+00
  7.59869910E+00 -1.51973982E+01  7.59869910E+00  7.59869910E+00 -1.51973982E+01
  7.59869910E+00  7.59869910E+00 -1.51973982E+01  7.59869910E+00  7.59869910E+00
 -1.51973982E+01  7.59869910E+00  7.59869910E+00 -1.51973982E+01  7.59869910E+00
  7.59869910E+00 -1.51973982E+01  7.59869910E+00  7.59869910E+00 -1.51973982E+01
  7.59869910E+00  7.59869910E+00 -1.51973982E+01  7.59869910E+00  7.59869910E+00
 -1.51973982E+01  7.59869910E+00  7.59869910E+00 -1.51973982E+01  7.59869910E+00
  7.59869910E+00 -1.51973982E+01  7.59869910E+00  7.59869910E+00 -1.51973982E+01
  7.59869910E+00  7.59869910E+00 -1.51973982E+01  7.59869910E+00  7.59869910E+00
 -1.51973982E+01  7.59869910E+00  7.59869910E+00 -1.51973982E+01  7.59869910E+00
  7.59869910E+00 -1.51973982E+01  7.59869910E+00  7.59869910E+00 -1.51973982E+01
  7.59869910E+00  7.59869910E+00 -1.51973982E+01  7.59869910E+00  7.59869910E+00
 -1.51973982E+01  7.59869910E+00  7.59869910E+00 -1.51973982E+01  7.59869910E+00
  7.59869910E+00 -1.51973982E+01  7.59869910E+00  7.59869910E+00 -1.51973982E+01
  7.59869910E+00  7.59869910E+00 -1.51973982E+01  7.59869910E+00  7.59869910E+00
 -1.51973982E+01  7.59869910E+00  7.59869910E+00 -1.51973982E+01  7.59869910E+00
  7.59869910E+00 -1.51973982E+01  7.59869910E+00  7.59869910E+00 -1.51973982E+01
  7.59869910E+00  7.59869910E+00 -1.51973982E+01  7.59869910E+00  7.59869910E+00
 -1.51973982E+01  7.59869910E+00  7.59869910E+00 -1.51973982E+01  7.59869910E+00
  7.59869910E+00 -1.51973982E+01  7.59869910E+00  7.59869910E+00 -1.51973982E+01
  7.59869910E+00  7.59869910E+00 -1.51973982E+01  7.59869910E+00  7.59869910E+00
 -1.51973982E+01  7.59869910E+00  7.59869910E+00 -1.51973982E+01  7.59869910E+00
  7.59869910E+00 -1.51973982E+01  7.59869910E+00  7.59869910E+00 -1.51973982E+01
  7.59869910E+00  7.59869910E+00 -1.51973982E+01  7.59869910E+00  7.59869910E+00
 -1.51973982E+01  7.59869910E+00  7.59869910E+00 -1.51973982E+01  7.59869910E+00
  7.59869910E+00 -1.51973982E+01  7.59869910E+00  7.59869910E+00 -1.51973982E+01
  7.59869910E+00  7.59869910E+00 -1.51973982E+01  7.59869910E+00  7.59869910E+00
 -1.51973982E+01  7.59869910E+00  7.59869910E+00 -1.51973982E+01  7.59869910E+00
  7.59869910E+00 -1.51973982E+01  7.59869910E+00  7.59869910E+00 -1.51973982E+01
  7.59869910E+00  7.59869910E+00 -1.51973982E+01  7.59869910E+00  7.59869910E+00
 -1.51973982E+01  7.59869910E+00  7.59869910E+00 -1.51973982E+01  7.59869910E+00
  7.59869910E+00 -1.51973982E+01  7.59869910E+00  7.59869910E+00 -1.51973982E+01
  7.59869910E+00  7.59869910E+00 -1.51973982E+01  7.59869910E+00  7.59869910E+00
 -1.51973982E+01  7.59869910E+00  7.59869910E+00 -1.51973982E+01  7.59869910E+00
  7.59869910E+00 -1.51973982E+01  7.59869910E+00  7.59869910E+00 -1.51973982E+01
  7.59869910E+00  7.59869910E+00 -1.51973982E+01  7.59869910E+00  7.59869910E+00
 -1.51973982E+01  7.59869910E+00  7.59869910E+00 -1.51973982E+01  7.59869910E+00
  7.59869910E+00 -1.51973982E+01  7.59869910E+00  7.59869910E+00 -1.51973982E+01
  7.59869910E+00  7.59869910E+00 -1.51973982E+01  7.59869910E+00  7.59869910E+00
 -1.51973982E+01  7.59869910E+00  7.59869910E+00 -1.51973982E+01  7.59869910E+00
  7.59869910E+00 -1.51973982E+01  7.59869910E+00  7.59869910E+00 -1.51973982E+01
  7.59869910E+00  7.59869910E+00 -1.51973982E+01  7.59869910E+00  7.59869910E+00
 -1.51973982E+01  7.59869910E+00  7.59869910E+00 -1.51973982E+01  7.59869910E+00
  7.59869910E+00 -1.51973982E+01  7.59869910E+00  7.59869910E+00 -1.51973982E+01
  7.59869910E+00  7.59869910E+00 -1.51973982E+01  7.59869910E+00  7.59869910E+00
 -1.51973982E+01  7.59869910E+00  7.59869910E+00 -1.51973982E+01  7.59869910E+00
  7.59869910E+00 -1.51973982E+01  7.59869910E+00  7.59869910E+00 -1.51973982E+01
  7.59869910E+00  7.59869910E+00 -1.51973982E+01  7.59869910E+00  7.59869910E+00
 -1.51973982E+01  7.59869910E+00  7.59869910E+00 -1.51973982E+01  7.59869910E+00
  7.59869910E+00 -1.51973982E+01  7.59869910E+00  7.59869910E+00 -1.51973982E+01
  7.59869910E+00  7.59869910E+00 -1.51973982E+01  7.59869910E+00  7.59869910E+00
 -1.51973982E+01  7.59869910E+00  7.59869910E+00 -1.51973982E+01  7.59869910E+00
  7.59869910E+00 -1.51973982E+01  7.59869910E+00  7.59869910E+00 -1.51973982E+01
  7.59869910E+00  7.59869910E+00 -1.51973982E+01  7.59869910E+00  7.59869910E+00
 -1.51973982E+01  7.59869910E+00  7.59869910E+00 -1.51973982E+01  7.59869910E+00
  7.59869910E+00 -1.51973982E+01  7.59869910E+00  7.59869910E+00 -1.51973982E+01
  7.59869910E+00  7.59869910E+00 -1.51973982E+01  7.59869910E+00  7.59869910E+00
 -1.51973982E+01  7.59869910E+00  7.59869910E+00 -1.51973982E+01  7.59869910E+00
  7.59869910E+00 -1.51973982E+01  7.59869910E+00  7.59869910E+00 -1.51973982E+01
  7.59869910E+00  7.59869910E+00 -1.51973982E+01  7.59869910E+00  7.59869910E+00
 -1.51973982E+01  7.59869910E+00  7.59869910E+00 -1.51973982E+01  7.59869910E+00
  7.59869910E+00 -1.51973982E+01  7.59869910E+00  7.59869910E+00 -1.51973982E+01
  7.59869910E+00  7.59869910E+00 -1.51973982E+01  7.59869910E+00  7.59869910E+00
 -1.51973982E+01  7.59869910E+00  7.59869910E+00 -1.51973982E+01  7.59869910E+00
  7.59869910E+00 -1.51973982E+01  7.59869910E+00  7.59869910E+00 -1.51973982E+01
  7.59869910E+00  7.59869910E+00 -1.51973982E+01  7.59869910E+00  7.59869910E+00
 -1.51973982E+01  7.59869910E+00  7.59869910E+00 -1.51973982E+01  7.59869910E+00
  7.59869910E+00 -1.51973982E+01  7.59869910E+00  7.59869910E+00 -1.51973982E+01
  7.59869910E+00  7.59869910E+00 -1.51973982E+01  7.59869910E+00  7.59869910E+00
 -1.51973982E+01  7.59869910E+00  7.59869910E+00 -1.51973982E+01  7.59869910E+00
  7.59869910E+00 -1.51973982E+01  7.59869910E+00  7.59869910E+00 -1.51973982E+01
  7.59869910E+00  7.59869910E+00 -1.51973982E+01  7.59869910E+00  7.59869910E+00
 -1.51973982E+01  7.59869910E+00  7.59869910E+00 -1.51973982E+01  7.59869910E+00
  7.59869910E+00 -1.51973982E+01  7.59869910E+00  7.59869910E+00 -1.51973982E+01
  7.59869910E+00  7.59869910E+00 -1.51973982E+01  7.59869910E+00  7.59869910E+00
 -1.51973982E+01  7.59869910E+00  7.59869910E+00 -1.51973982E+01  7.59869910E+00
  7.59869910E+00 -1.51973982E+01  7.59869910E+00  7.59869910E+00 -1.51973982E+01
  7.59869910E+00  7.59869910E+00 -1.51973982E+01  7.59869910E+00  7.59869910E+00
 -1.51973982E+01  7.59869910E+00  7.59869910E+00 -1.51973982E+01  7.59869910E+00
  7.59869910E+00 -1.51973982E+01  7.59869910E+00  7.59869910E+00 -1.51973982E+01
  7.59869910E+00  7.59869910E+00 -1.51973982E+01  7.59869910E+00  7.59869910E+00
 -1.51973982E+01  7.59869910E+00  7.59869910E+00 -1.51973982E+01  7.59869910E+00
  7.59869910E+00 -1.51973982E+01  7.59869910E+00  7.59869910E+00 -1.51973982E+01
  7.59869910E+00  7.59869910E+00 -1.51973982E+01  7.59869910E+00  7.59869910E+00
 -1.51973982E+01  7.59869910E+00  7.59869910E+00 -1.51973982E+01  7.59869910E+00
  7.59869910E+00 -1.51973982E+01  7.59869910E+00  7.59869910E+00 -1.51973982E+01
  7.59869910E+00  7.59869910E+00 -1.51973982E+01  7.59869910E+00  7.59869910E+00
 -1.51973982E+01  7.59869910E+00  7.59869910E+00 -1.51973982E+01  7.59869910E+00
  7.59869910E+00 -1.51973982E+01  7.59869910E+00  7.59869910E+00 -1.51973982E+01
  7.59869910E+00  7.59869910E+00 -1.51973982E+01  7.59869910E+00  7.59869910E+00
 -1.51973982E+01  7.59869910E+00  7.59869910E+00 -1.51973982E+01  7.59869910E+00
  7.59869910E+00 -1.51973982E+01  7.59869910E+00  7.59869910E+00 -1.51973982E+01
  7.59869910E+00  7.59869910E+00 -1.51973982E+01  7.59869910E+00  7.59869910E+00
 -1.51973982E+01  7.59869910E+00  7.59869910E+00 -1.51973982E+01  7.59869910E+00
  7.59869910E+00 -1.51973982E+01  7.59869910E+00  7.59869910E+00 -1.51973982E+01
  7.59869910E+00  7.59869910E+00 -1.51973982E+01  7.59869910E+00  7.59869910E+00
 -1.51973982E+01  7.59869910E+00  7.59869910E+00 -1.51973982E+01  7.59869910E+00
  7.59869910E+00 -1.51973982E+01  7.59869910E+00  7.59869910E+00 -1.51973982E+01
  7.59869910E+00  7.59869910E+00 -1.51973982E+01  7.59869910E+00  7.59869910E+00
 -1.51973982E+01  7.59869910E+00  7.59869910E+00 -1.51973982E+01  7.59869910E+00
  7.59869910E+00 -1.51973982E+01  7.59869910E+00  7.59869910E+00 -1.51973982E+01
  7.59869910E+00  7.59869910E+00 -1.51973982E+01  7.59869910E+00  7.59869910E+00
 -1.51973982E+01  7.59869910E+00  7.59869910E+00 -1.51973982E+01  7.59869910E+00
  7.59869910E+00 -1.51973982E+01  7.59869910E+00  7.59869910E+00 -1.51973982E+01
  7.59869910E+00  7.59869910E+00 -1.51973982E+01  7.59869910E+00  7.59869910E+00
 -1.51973982E+01  7.59869910E+00  7.59869910E+00 -1.51973982E+01  7.59869910E+00
  7.59869910E+00 -1.51973982E+01  7.59869910E+00  7.59869910E+00 -1.51973982E+01
  7.59869910E+00  7.59869910E+00 -1.51973982E+01  7.59869910E+00  7.59869910E+00
 -1.51973982E+01  7.59869910E+00  7.59869910E+00 -1.51973982E+01  7.59869910E+00
  7.59869910E+00 -1.51973982E+01  7.59869910E+00  7.59869910E+00 -1.51973982E+01
  7.59869910E+00  7.59869910E+00 -1.51973982E+01  7.59869910E+00  7.59869910E+00
 -1.51973982E+01  7.59869910E+00  7.59869910E+00 -1.51973982E+01  7.59869910E+00
  7.59869910E+00 -1.51973982E+01  7.59869910E+00  7.59869910E+00 -1.51973982E+01
  7.59869910E+00  7.59869910E+00 -1.51973982E+01  7.59869910E+00  7.59869910E+00
 -1.51973982E+01  7.59869910E+00  7.59869910E+00 -1.51973982E+01  7.59869910E+00
  7.59869910E+00 -1.51973982E+01  7.59869910E+00  7.59869910E+00 -1.51973982E+01
  7.59869910E+00  7.59869910E+00 -1.51973982E+01  7.59869910E+00  7.59869910E+00
 -1.51973982E+01  7.59869910E+00  7.59869910E+00 -1.51973982E+01  7.59869910E+00
  7.59869910E+00 -1.51973982E+01  7.59869910E+00  7.59869910E+00 -1.51973982E+01
  7.59869910E+00  7.59869910E+00 -1.51973982E+01  7.59869910E+00  7.59869910E+00
 -1.51973982E+01  7.59869910E+00  7.59869910E+00 -1.51973982E+01  7.59869910E+00
  7.59869910E+00 -1.51973982E+01  7.59869910E+00  7.59869910E+00 -1.51973982E+01
  7.59869910E+00  7.59869910E+00 -1.51973982E+01  7.59869910E+00  7.59869910E+00
 -1.51973982E+01  7.59869910E+00  7.59869910E+00 -1.51973982E+01  7.59869910E+00
  7.59869910E+00 -1.51973982E+01  7.59869910E+00  7.59869910E+00 -1.51973982E+01
  7.59869910E+00  7.59869910E+00 -1.51973982E+01  7.59869910E+00  7.59869910E+00
 -1.51973982E+01  7.59869910E+00  7.59869910E+00 -1.51973982E+01  7.59869910E+00
  7.59869910E+00 -1.51973982E+01  7.59869910E+00  7.59869910E+00 -1.51973982E+01
  7.59869910E+00  7.59869910E+00 -1.51973982E+01  7.59869910E+00  7.59869910E+00
 -1.51973982E+01  7.59869910E+00  7.59869910E+00 -1.51973982E+01  7.59869910E+00
  7.59869910E+00 -1.51973982E+01  7.59869910E+00  7.59869910E+00 -1.51973982E+01
  7.59869910E+00  7.59869910E+00 -1.51973982E+01  7.59869910E+00  7.59869910E+00
 -1.51973982E+01  7.59869910E+00  7.59869910E+00 -1.51973982E+01  7.59869910E+00
  7.59869910E+00 -1.51973982E+01  7.59869910E+00  7.59869910E+00 -1.51973982E+01
  7.59869910E+00  7.59869910E+00 -1.51973982E+01  7.59869910E+00  7.59869910E+00
 -1.51973982E+01  7.59869910E+00  7.59869910E+00 -1.51973982E+01  7.59869910E+00
  7.59869910E+00 -1.51973982E+01  7.59869910E+00  7.59869910E+00 -1.51973982E+01
  7.59869910E+00  7.59869910E+00 -1.51973982E+01  7.59869910E+00  7.59869910E+00
 -1.51973982E+01  7.59869910E+00  7.59869910E+00 -1.51973982E+01  7.59869910E+00
  7.59869910E+00 -1.51973982E+01  7.59869910E+00  7.59869910E+00 -1.51973982E+01
  7.59869910E+00  7.59869910E+00 -1.51973982E+01  7.59869910E+00  7.59869910E+00
 -1.51973982E+01  7.59869910E+00  7.59869910E+00 -1.51973982E+01  7.59869910E+00
  7.59869910E+00 -1.51973982E+01  7.59869910E+00  7.59869910E+00 -1.51973982E+01
  7.59869910E+00  7.59869910E+00 -1.51973982E+01  7.59869910E+00  7.59869910E+00
 -1.51973982E+01  7.59869910E+00  7.59869910E+00 -1.51973982E+01  7.59869910E+00
  7.59869910E+00 -1.51973982E+01  7.59869910E+00  7.59869910E+00 -1.51973982E+01
  7.59869910E+00  7.59869910E+00 -1.51973982E+01  7.59869910E+00  7.59869910E+00
 -1.51973982E+01  7.59869910E+00  7.59869910E+00 -1.51973982E+01  7.59869910E+00
  7.59869910E+00 -1.51973982E+01  7.59869910E+00  7.59869910E+00 -1.51973982E+01
  7.59869910E+00  7.59869910E+00 -1.51973982E+01  7.59869910E+00  7.59869910E+00
 -1.51973982E+01  7.59869910E+00  7.59869910E+00 -1.51973982E+01  7.59869910E+00
  7.59869910E+00 -1.51973982E+01  7.59869910E+00  7.59869910E+00 -1.51973982E+01
  7.59869910E+00  7.59869910E+00 -1.51973982E+01  7.59869910E+00  7.59869910E+00
 -1.51973982E+01  7.59869910E+00  7.59869910E+00 -1.51973982E+01  7.59869910E+00
  7.59869910E+00 -1.51973982E+01  7.59869910E+00  7.59869910E+00 -1.51973982E+01
  7.59869910E+00  7.59869910E+00 -1.51973982E+01  7.59869910E+00  7.59869910E+00
 -1.51973982E+01  7.59869910E+00  7.59869910E+00 -1.51973982E+01  7.59869910E+00
  7.59869910E+00 -1.51973982E+01  7.59869910E+00  7.59869910E+00 -1.51973982E+01
  7.59869910E+00  7.59869910E+00 -1.51973982E+01  7.59869910E+00  7.59869910E+00
 -1.51973982E+01  7.59869910E+00  7.59869910E+00 -1.51973982E+01  7.59869910E+00
  7.59869910E+00 -1.51973982E+01  7.59869910E+00  7.59869910E+00 -1.51973982E+01
  7.59869910E+00  7.59869910E+00 -1.51973982E+01  7.59869910E+00  7.59869910E+00
 -1.51973982E+01  7.59869910E+00  7.59869910E+00 -1.51973982E+01  7.59869910E+00
  7.59869910E+00 -1.51973982E+01  7.59869910E+00  7.59869910E+00 -1.51973982E+01
  7.59869910E+00  7.59869910E+00 -1.51973982E+01  7.59869910E+00  7.59869910E+00
 -1.51973982E+01  7.59869910E+00  7.59869910E+00 -1.51973982E+01  7.59869910E+00
  7.59869910E+00 -1.51973982E+01  7.59869910E+00  7.59869910E+00 -1.51973982E+01
  7.59869910E+00  7.59869910E+00 -1.51973982E+01  7.59869910E+00  7.59869910E+00
 -1.51973982E+01  7.59869910E+00  7.59869910E+00 -1.51973982E+01  7.59869910E+00
  7.59869910E+00 -1.51973982E+01  7.59869910E+00  7.59869910E+00 -1.51973982E+01
  7.59869910E+00  7.59869910E+00 -1.51973982E+01  7.59869910E+00  7.59869910E+00
 -1.51973982E+01  7.59869910E+00  7.59869910E+00 -1.51973982E+01  7.59869910E+00
  7.59869910E+00 -1.51973982E+01  7.59869910E+00  7.59869910E+00 -1.51973982E+01
  7.59869910E+00  7.59869910E+00 -1.51973982E+01  7.59869910E+00  7.59869910E+00
 -1.51973982E+01  7.59869910E+00  7.59869910E+00 -1.51973982E+01  7.59869910E+00
  7.59869910E+00 -1.51973982E+01  7.59869910E+00  7.59869910E+00 -1.51973982E+01
  7.59869910E+00  7.59869910E+00 -1.51973982E+01  7.59869910E+00  7.59869910E+00
 -1.51973982E+01  7.59869910E+00  7.59869910E+00 -1.51973982E+01  7.59869910E+00
  7.59869910E+00 -1.51973982E+01  7.59869910E+00  7.59869910E+00 -1.51973982E+01
  7.59869910E+00  7.59869910E+00 -1.51973982E+01  7.59869910E+00  7.59869910E+00
 -1.51973982E+01  7.59869910E+00  7.59869910E+00 -1.51973982E+01  7.59869910E+00
  7.59869910E+00 -1.51973982E+01  7.59869910E+00  7.59869910E+00 -1.51973982E+01
  7.59869910E+00  7.59869910E+00 -1.51973982E+01  7.59869910E+00  7.59869910E+00
 -1.51973982E+01  7.59869910E+00  7.59869910E+00 -1.51973982E+01  7.59869910E+00
  7.59869910E+00 -1.51973982E+01  7.59869910E+00  7.59869910E+00 -1.51973982E+01
  7.59869910E+00  7.59869910E+00 -1.51973982E+01  7.59869910E+00  7.59869910E+00
 -1.51973982E+01  7.59869910E+00  7.59869910E+00 -1.51973982E+01  7.59869910E+00
  7.59869910E+00 -1.51973982E+01  7.59869910E+00  7.59869910E+00 -1.51973982E+01
  7.59869910E+00  7.59869910E+00 -1.51973982E+01  7.59869910E+00  7.59869910E+00
 -1.51973982E+01  7.59869910E+00  7.59869910E+00 -1.51973982E+01  7.59869910E+00
  7.59869910E+00 -1.51973982E+01  7.59869910E+00  7.59869910E+00 -1.51973982E+01
  7.59869910E+00  7.59869910E+00 -1.51973982E+01  7.59869910E+00  7.59869910E+00
 -1.51973982E+01  7.59869910E+00  7.59869910E+00 -1.51973982E+01  7.59869910E+00
  7.59869910E+00 -1.51973982E+01  7.59869910E+00  7.59869910E+00 -1.51973982E+01
  7.59869910E+00  7.59869910E+00 -1.51973982E+01  7.59869910E+00  7.59869910E+00
 -1.51973982E+01  7.59869910E+00  7.59869910E+00 -1.51973982E+01  7.59869910E+00
  7.59869910E+00 -1.51973982E+01  7.59869910E+00  7.59869910E+00 -1.51973982E+01
  7.59869910E+00  7.59869910E+00 -1.51973982E+01  7.59869910E+00  7.59869910E+00
 -1.51973982E+01  7.59869910E+00  7.59869910E+00 -1.51973982E+01  7.59869910E+00
  7.59869910E+00 -1.51973982E+01  7.59869910E+00  7.59869910E+00 -1.51973982E+01
  7.59869910E+00  7.59869910E+00 -1.51973982E+01  7.59869910E+00  7.59869910E+00
 -1.51973982E+01  7.59869910E+00  7.59869910E+00 -1.51973982E+01  7.59869910E+00
  7.59869910E+00 -1.51973982E+01  7.59869910E+00  7.59869910E+00 -1.51973982E+01
  7.59869910E+00  7.59869910E+00 -1.51973982E+01  7.59869910E+00  7.59869910E+00
 -1.51973982E+01  7.59869910E+00  7.59869910E+00 -1.51973982E+01  7.59869910E+00
  7.59869910E+00 -1.51973982E+01  7.59869910E+00  7.59869910E+00 -1.51973982E+01
  7.59869910E+00  7.59869910E+00 -1.51973982E+01  7.59869910E+00  7.59869910E+00
 -1.51973982E+01  7.59869910E+00  7.59869910E+00 -1.51973982E+01  7.59869910E+00
  7.59869910E+00 -1.51973982E+01  7.59869910E+00  7.59869910E+00 -1.51973982E+01
  7.59869910E+00  7.59869910E+00 -1.51973982E+01  7.59869910E+00  7.59869910E+00
 -1.51973982E+01  7.59869910E+00  7.59869910E+00 -1.51973982E+01  7.59869910E+00
  7.59869910E+00 -1.51973982E+01  7.59869910E+00  7.59869910E+00 -1.51973982E+01
  7.59869910E+00  7.59869910E+00 -1.51973982E+01  7.59869910E+00  7.59869910E+00
 -1.51973982E+01  7.59869910E+00  7.59869910E+00 -1.51973982E+01  7.59869910E+00
  7.59869910E+00 -1.51973982E+01  7.59869910E+00  7.59869910E+00 -1.51973982E+01
  7.59869910E+00  7.59869910E+00 -1.51973982E+01  7.59869910E+00  7.59869910E+00
 -1.51973982E+01  7.59869910E+00  7.59869910E+00 -1.51973982E+01  7.59869910E+00
  7.59869910E+00 -1.51973982E+01  7.59869910E+00  7.59869910E+00 -1.51973982E+01
  7.59869910E+00  7.59869910E+00 -1.51973982E+01  7.59869910E+00  7.59869910E+00
 -1.51973982E+01  7.59869910E+00  7.59869910E+00 -1.51973982E+01  7.59869910E+00
  7.59869910E+00 -1.51973982E+01  7.59869910E+00  7.59869910E+00 -1.51973982E+01
  7.59869910E+00  7.59869910E+00 -1.51973982E+01  7.59869910E+00  7.59869910E+00
 -1.51973982E+01  7.59869910E+00  7.59869910E+00 -1.51973982E+01  7.59869910E+00
  7.59869910E+00 -1.51973982E+01  7.59869910E+00  7.59869910E+00 -1.51973982E+01
  7.59869910E+00  7.59869910E+00 -1.51973982E+01  7.59869910E+00  7.59869910E+00
 -1.51973982E+01  7.59869910E+00  7.59869910E+00 -1.51973982E+01  7.59869910E+00
  7.59869910E+00 -1.51973982E+01  7.59869910E+00  7.59869910E+00 -1.51973982E+01
  7.59869910E+00  7.59869910E+00 -1.51973982E+01  7.59869910E+00  7.59869910E+00
 -1.51973982E+01  7.59869910E+00  7.59869910E+00 -1.51973982E+01  7.59869910E+00
  7.59869910E+00 -1.51973982E+01  7.59869910E+00  7.59869910E+00 -1.51973982E+01
  7.59869910E+00  7.59869910E+00 -1.51973982E+01  7.59869910E+00  7.59869910E+00
 -1.51973982E+01  7.59869910E+00  7.59869910E+00 -1.51973982E+01  7.59869910E+00
  7.59869910E+00 -1.51973982E+01  7.59869910E+00  7.59869910E+00 -1.51973982E+01
  7.59869910E+00  7.59869910E+00 -1.51973982E+01  7.59869910E+00  7.59869910E+00
 -1.51973982E+01  7.59869910E+00  7.59869910E+00 -1.51973982E+01  7.59869910E+00
  7.59869910E+00 -1.51973982E+01  7.59869910E+00  7.59869910E+00 -1.51973982E+01
  7.59869910E+00  7.59869910E+00 -1.51973982E+01  7.59869910E+00  7.59869910E+00
 -1.51973982E+01  7.59869910E+00  7.59869910E+00 -1.51973982E+01  7.59869910E+00
  7.59869910E+00 -1.51973982E+01  7.59869910E+00  7.59869910E+00 -1.51973982E+01
  7.59869910E+00  7.59869910E+00 -1.51973982E+01  7.59869910E+00  7.59869910E+00
 -1.51973982E+01  7.59869910E+00  7.59869910E+00 -1.51973982E+01  7.59869910E+00
  7.59869910E+00 -1.51973982E+01  7.59869910E+00  7.59869910E+00 -1.51973982E+01
  7.59869910E+00  7.59869910E+00 -1.51973982E+01  7.59869910E+00  7.59869910E+00
 -1.51973982E+01  7.59869910E+00  7.59869910E+00 -1.51973982E+01  7.59869910E+00
  7.59869910E+00 -1.51973982E+01  7.59869910E+00  7.59869910E+00 -1.51973982E+01
  7.59869910E+00  7.59869910E+00 -1.51973982E+01  7.59869910E+00  7.59869910E+00
 -1.51973982E+01  7.59869910E+00  7.59869910E+00 -1.51973982E+01  7.59869910E+00
  7.59869910E+00 -1.51973982E+01  7.59869910E+00  7.59869910E+00 -1.51973982E+01
  7.59869910E+00  7.59869910E+00 -1.51973982E+01  7.59869910E+00  7.59869910E+00
 -1.51973982E+01  7.59869910E+00  7.59869910E+00 -1.51973982E+01  7.59869910E+00
  7.59869910E+00 -1.51973982E+01  7.59869910E+00  7.59869910E+00 -1.51973982E+01
  7.59869910E+00  7.59869910E+00 -1.51973982E+01  7.59869910E+00  7.59869910E+00
 -1.51973982E+01  7.59869910E+00  7.59869910E+00 -1.51973982E+01  7.59869910E+00
  7.59869910E+00 -1.51973982E+01  7.59869910E+00  7.59869910E+00 -1.51973982E+01
  7.59869910E+00  7.59869910E+00 -1.51973982E+01  7.59869910E+00  7.59869910E+00
 -1.51973982E+01  7.59869910E+00  7.59869910E+00 -1.51973982E+01  7.59869910E+00
  7.59869910E+00 -1.51973982E+01  7.59869910E+00  7.59869910E+00 -1.51973982E+01
  7.59869910E+00  7.59869910E+00 -1.51973982E+01  7.59869910E+00  7.59869910E+00
 -1.51973982E+01  7.59869910E+00  7.59869910E+00 -1.51973982E+01  7.59869910E+00
  7.59869910E+00 -1.51973982E+01  7.59869910E+00  7.59869910E+00 -1.51973982E+01
  7.59869910E+00  7.59869910E+00 -1.51973982E+01  7.59869910E+00  7.59869910E+00
 -1.51973982E+01  7.59869910E+00  7.59869910E+00 -1.51973982E+01  7.59869910E+00
  7.59869910E+00 -1.51973982E+01  7.59869910E+00  7.59869910E+00 -1.51973982E+01
  7.59869910E+00  7.59869910E+00 -1.51973982E+01  7.59869910E+00  7.59869910E+00
 -1.51973982E+01  7.59869910E+00  7.59869910E+00 -1.51973982E+01  7.59869910E+00
  7.59869910E+00 -1.51973982E+01  7.59869910E+00  7.59869910E+00 -1.51973982E+01
  7.59869910E+00  7.59869910E+00 -1.51973982E+01  7.59869910E+00  7.59869910E+00
 -1.51973982E+01  7.59869910E+00  7.59869910E+00 -1.51973982E+01  7.59869910E+00
  7.59869910E+00 -1.51973982E+01  7.59869910E+00  7.59869910E+00 -1.51973982E+01
  7.59869910E+00  7.59869910E+00 -1.51973982E+01  7.59869910E+00  7.59869910E+00
 -1.51973982E+01  7.59869910E+00  7.59869910E+00 -1.51973982E+01  7.59869910E+00
  7.59869910E+00 -1.51973982E+01  7.59869910E+00  7.59869910E+00 -1.51973982E+01
  7.59869910E+00  7.59869910E+00 -1.51973982E+01  7.59869910E+00  7.59869910E+00
 -1.51973982E+01  7.59869910E+00  7.59869910E+00 -1.51973982E+01  7.59869910E+00
  7.59869910E+00 -1.51973982E+01  7.59869910E+00  7.59869910E+00 -1.51973982E+01
  7.59869910E+00  7.59869910E+00 -1.51973982E+01  7.59869910E+00  7.59869910E+00
 -1.51973982E+01  7.59869910E+00  7.59869910E+00 -1.51973982E+01  7.59869910E+00
  7.59869910E+00 -1.51973982E+01  7.59869910E+00  7.59869910E+00 -1.51973982E+01
  7.59869910E+00  7.59869910E+00 -1.51973982E+01  7.59869910E+00  7.59869910E+00
 -1.51973982E+01  7.59869910E+00  7.59869910E+00 -1.51973982E+01  7.59869910E+00
  7.59869910E+00 -1.51973982E+01  7.59869910E+00  7.59869910E+00 -1.51973982E+01
  7.59869910E+00  7.59869910E+00 -1.51973982E+01  7.59869910E+00  7.59869910E+00
 -1.51973982E+01  7.59869910E+00  7.59869910E+00 -1.51973982E+01  7.59869910E+00
  7.59869910E+00 -1.51973982E+01  7.59869910E+00  7.59869910E+00 -1.51973982E+01
  7.59869910E+00  7.59869910E+00 -1.51973982E+01  7.59869910E+00  7.59869910E+00
 -1.51973982E+01  7.59869910E+00  7.59869910E+00 -1.51973982E+01  7.59869910E+00
  7.59869910E+00 -1.51973982E+01  7.59869910E+00  7.59869910E+00 -1.51973982E+01
  7.59869910E+00  7.59869910E+00 -1.51973982E+01  7.59869910E+00  7.59869910E+00
 -1.51973982E+01  7.59869910E+00  7.59869910E+00 -1.51973982E+01  7.59869910E+00
  7.59869910E+00 -1.51973982E+01  7.59869910E+00  7.59869910E+00 -1.51973982E+01
  7.59869910E+00  7.59869910E+00 -1.51973982E+01  7.59869910E+00  7.59869910E+00
 -1.51973982E+01  7.59869910E+00  7.59869910E+00 -1.51973982E+01  7.59869910E+00
  7.59869910E+00 -1.51973982E+01  7.59869910E+00  7.59869910E+00 -1.51973982E+01
  7.59869910E+00  7.59869910E+00 -1.51973982E+01  7.59869910E+00  7.59869910E+00
 -1.51973982E+01  7.59869910E+00  7.59869910E+00 -1.51973982E+01  7.59869910E+00
  7.59869910E+00 -1.51973982E+01  7.59869910E+00  7.59869910E+00 -1.51973982E+01
  7.59869910E+00  7.59869910E+00 -1.51973982E+01  7.59869910E+00  7.59869910E+00
 -1.51973982E+01  7.59869910E+00  7.59869910E+00 -1.51973982E+01  7.59869910E+00
  7.59869910E+00 -1.51973982E+01  7.59869910E+00  7.59869910E+00 -1.51973982E+01
  7.59869910E+00  7.59869910E+00 -1.51973982E+01  7.59869910E+00  7.59869910E+00
 -1.51973982E+01  7.59869910E+00  7.59869910E+00 -1.51973982E+01  7.59869910E+00
  7.59869910E+00 -1.51973982E+01  7.59869910E+00  7.59869910E+00 -1.51973982E+01
  7.59869910E+00  7.59869910E+00 -1.51973982E+01  7.59869910E+00  7.59869910E+00
 -1.51973982E+01  7.59869910E+00  7.59869910E+00 -1.51973982E+01  7.59869910E+00
  7.59869910E+00 -1.51973982E+01  7.59869910E+00  7.59869910E+00 -1.51973982E+01
  7.59869910E+00  7.59869910E+00 -1.51973982E+01  7.59869910E+00  7.59869910E+00
 -1.51973982E+01  7.59869910E+00  7.59869910E+00 -1.51973982E+01  7.59869910E+00
  7.59869910E+00 -1.51973982E+01  7.59869910E+00  7.59869910E+00 -1.51973982E+01
  7.59869910E+00  7.59869910E+00 -1.51973982E+01  7.59869910E+00  7.59869910E+00
 -1.51973982E+01  7.59869910E+00  7.59869910E+00 -1.51973982E+01  7.59869910E+00
  7.59869910E+00 -1.51973982E+01  7.59869910E+00  7.59869910E+00 -1.51973982E+01
  7.59869910E+00  7.59869910E+00 -1.51973982E+01  7.59869910E+00  7.59869910E+00
 -1.51973982E+01  7.59869910E+00  7.59869910E+00 -1.51973982E+01  7.59869910E+00
  7.59869910E+00 -1.51973982E+01  7.59869910E+00  7.59869910E+00 -1.51973982E+01
  7.59869910E+00  7.59869910E+00 -1.51973982E+01  7.59869910E+00  7.59869910E+00
 -1.51973982E+01  7.59869910E+00  7.59869910E+00 -1.51973982E+01  7.59869910E+00
  7.59869910E+00 -1.51973982E+01  7.59869910E+00  7.59869910E+00 -1.51973982E+01
  7.59869910E+00  7.59869910E+00 -1.51973982E+01  7.59869910E+00  7.59869910E+00
 -1.51973982E+01  7.59869910E+00  7.59869910E+00 -1.51973982E+01  7.59869910E+00
  7.59869910E+00 -1.51973982E+01  7.59869910E+00  7.59869910E+00 -1.51973982E+01
  7.59869910E+00  7.59869910E+00 -1.51973982E+01  7.59869910E+00  7.59869910E+00
 -1.51973982E+01  7.59869910E+00  7.59869910E+00 -1.51973982E+01  7.59869910E+00
  7.59869910E+00 -1.51973982E+01  7.59869910E+00  7.59869910E+00 -1.51973982E+01
  7.59869910E+00  7.59869910E+00 -1.51973982E+01  7.59869910E+00  7.59869910E+00
 -1.51973982E+01  7.59869910E+00  7.59869910E+00 -1.51973982E+01  7.59869910E+00
  7.59869910E+00 -1.51973982E+01  7.59869910E+00  7.59869910E+00 -1.51973982E+01
  7.59869910E+00  7.59869910E+00 -1.51973982E+01  7.59869910E+00  7.59869910E+00
 -1.51973982E+01  7.59869910E+00  7.59869910E+00 -1.51973982E+01  7.59869910E+00
  7.59869910E+00 -1.51973982E+01  7.59869910E+00  7.59869910E+00 -1.51973982E+01
  7.59869910E+00  7.59869910E+00 -1.51973982E+01  7.59869910E+00  7.59869910E+00
 -1.51973982E+01  7.59869910E+00  7.59869910E+00 -1.51973982E+01  7.59869910E+00
  7.59869910E+00 -1.51973982E+01  7.59869910E+00  7.59869910E+00 -1.51973982E+01
  7.59869910E+00  7.59869910E+00 -1.51973982E+01  7.59869910E+00  7.59869910E+00
 -1.51973982E+01  7.59869910E+00  7.59869910E+00 -1.51973982E+01  7.59869910E+00
  7.59869910E+00 -1.51973982E+01  7.59869910E+00  7.59869910E+00 -1.51973982E+01
  7.59869910E+00  7.59869910E+00 -1.51973982E+01  7.59869910E+00  7.59869910E+00
 -1.51973982E+01  7.59869910E+00  7.59869910E+00 -1.51973982E+01  7.59869910E+00
  7.59869910E+00 -1.51973982E+01  7.59869910E+00  7.59869910E+00 -1.51973982E+01
  7.59869910E+00  7.59869910E+00 -1.51973982E+01  7.59869910E+00  7.59869910E+00
 -1.51973982E+01  7.59869910E+00  7.59869910E+00 -1.51973982E+01  7.59869910E+00
  7.59869910E+00 -1.51973982E+01  7.59869910E+00  7.59869910E+00 -1.51973982E+01
  7.59869910E+00  7.59869910E+00 -1.51973982E+01  7.59869910E+00  7.59869910E+00
 -1.51973982E+01  7.59869910E+00  7.59869910E+00 -1.51973982E+01  7.59869910E+00
  7.59869910E+00 -1.51973982E+01  7.59869910E+00  7.59869910E+00 -1.51973982E+01
  7.59869910E+00  7.59869910E+00 -1.51973982E+01  7.59869910E+00  7.59869910E+00
 -1.51973982E+01  7.59869910E+00  7.59869910E+00 -1.51973982E+01  7.59869910E+00
  7.59869910E+00 -1.51973982E+01  7.59869910E+00  7.59869910E+00 -1.51973982E+01
  7.59869910E+00  7.59869910E+00 -1.51973982E+01  7.59869910E+00  7.59869910E+00
 -1.51973982E+01  7.59869910E+00  7.59869910E+00 -1.51973982E+01  7.59869910E+00
  7.59869910E+00 -1.51973982E+01  7.59869910E+00  7.59869910E+00 -1.51973982E+01
  7.59869910E+00  7.59869910E+00 -1.51973982E+01  7.59869910E+00  7.59869910E+00
 -1.51973982E+01  7.59869910E+00  7.59869910E+00 -1.51973982E+01  7.59869910E+00
  7.59869910E+00 -1.51973982E+01  7.59869910E+00  7.59869910E+00 -1.51973982E+01
  7.59869910E+00  7.59869910E+00 -1.51973982E+01  7.59869910E+00  7.59869910E+00
 -1.51973982E+01  7.59869910E+00  7.59869910E+00 -1.51973982E+01  7.59869910E+00
  7.59869910E+00 -1.51973982E+01  7.59869910E+00  7.59869910E+00 -1.51973982E+01
  7.59869910E+00  7.59869910E+00 -1.51973982E+01  7.59869910E+00  7.59869910E+00
 -1.51973982E+01  7.59869910E+00  7.59869910E+00 -1.51973982E+01  7.59869910E+00
  7.59869910E+00 -1.51973982E+01  7.59869910E+00  7.59869910E+00 -1.51973982E+01
  7.59869910E+00  7.59869910E+00 -1.51973982E+01  7.59869910E+00  7.59869910E+00
 -1.51973982E+01  7.59869910E+00  7.59869910E+00 -1.51973982E+01  7.59869910E+00
  7.59869910E+00 -1.51973982E+01  7.59869910E+00  7.59869910E+00 -1.51973982E+01
  7.59869910E+00  7.59869910E+00 -1.51973982E+01  7.59869910E+00  7.59869910E+00
 -1.51973982E+01  7.59869910E+00  7.59869910E+00 -1.51973982E+01  7.59869910E+00
  7.59869910E+00 -1.51973982E+01  7.59869910E+00  7.59869910E+00 -1.51973982E+01
  7.59869910E+00  7.59869910E+00 -1.51973982E+01  7.59869910E+00  7.59869910E+00
 -1.51973982E+01  7.59869910E+00  7.59869910E+00 -1.51973982E+01  7.59869910E+00
  7.59869910E+00 -1.51973982E+01  7.59869910E+00  7.59869910E+00 -1.51973982E+01
  7.59869910E+00  7.59869910E+00 -1.51973982E+01  7.59869910E+00  7.59869910E+00
 -1.51973982E+01  7.59869910E+00  7.59869910E+00 -1.51973982E+01  7.59869910E+00
  7.59869910E+00 -1.51973982E+01  7.59869910E+00  7.59869910E+00 -1.51973982E+01
  7.59869910E+00  7.59869910E+00 -1.51973982E+01  7.59869910E+00  7.59869910E+00
 -1.51973982E+01  7.59869910E+00  7.59869910E+00 -1.51973982E+01  7.59869910E+00
  7.59869910E+00 -1.51973982E+01  7.59869910E+00  7.59869910E+00 -1.51973982E+01
  7.59869910E+00  7.59869910E+00 -1.51973982E+01  7.59869910E+00  7.59869910E+00
 -1.51973982E+01  7.59869910E+00  7.59869910E+00 -1.51973982E+01  7.59869910E+00
  7.59869910E+00 -1.51973982E+01  7.59869910E+00  7.59869910E+00 -1.51973982E+01
  7.59869910E+00  7.59869910E+00 -1.51973982E+01  7.59869910E+00  7.59869910E+00
 -1.51973982E+01  7.59869910E+00  7.59869910E+00 -1.51973982E+01  7.59869910E+00
  7.59869910E+00 -1.51973982E+01  7.59869910E+00  7.59869910E+00 -1.51973982E+01
  7.59869910E+00  7.59869910E+00 -1.51973982E+01  7.59869910E+00  7.59869910E+00
 -1.51973982E+01  7.59869910E+00  7.59869910E+00 -1.51973982E+01  7.59869910E+00
  7.59869910E+00 -1.51973982E+01  7.59869910E+00  7.59869910E+00 -1.51973982E+01
  7.59869910E+00  7.59869910E+00 -1.51973982E+01  7.59869910E+00  7.59869910E+00
 -1.51973982E+01  7.59869910E+00  7.59869910E+00 -1.51973982E+01  7.59869910E+00
  7.59869910E+00 -1.51973982E+01  7.59869910E+00  7.59869910E+00 -1.51973982E+01
  7.59869910E+00  7.59869910E+00 -1.51973982E+01  7.59869910E+00  7.59869910E+00
 -1.51973982E+01  7.59869910E+00  7.59869910E+00 -1.51973982E+01  7.59869910E+00
  7.59869910E+00 -1.51973982E+01  7.59869910E+00  7.59869910E+00 -1.51973982E+01
  7.59869910E+00  7.59869910E+00 -1.51973982E+01  7.59869910E+00  7.59869910E+00
 -1.51973982E+01  7.59869910E+00  7.59869910E+00 -1.51973982E+01  7.59869910E+00
  7.59869910E+00 -1.51973982E+01  7.59869910E+00  7.59869910E+00 -1.51973982E+01
  7.59869910E+00  7.59869910E+00 -1.51973982E+01  7.59869910E+00  7.59869910E+00
 -1.51973982E+01  7.59869910E+00  7.59869910E+00 -1.51973982E+01  7.59869910E+00
  7.59869910E+00 -1.51973982E+01  7.59869910E+00  7.59869910E+00 -1.51973982E+01
  7.59869910E+00  7.59869910E+00 -1.51973982E+01  7.59869910E+00  7.59869910E+00
 -1.51973982E+01  7.59869910E+00  7.59869910E+00 -1.51973982E+01  7.59869910E+00
  7.59869910E+00 -1.51973982E+01  7.59869910E+00  7.59869910E+00 -1.51973982E+01
  7.59869910E+00  7.59869910E+00 -1.51973982E+01  7.59869910E+00  7.59869910E+00
 -1.51973982E+01  7.59869910E+00  7.59869910E+00 -1.51973982E+01  7.59869910E+00
  7.59869910E+00 -1.51973982E+01  7.59869910E+00  7.59869910E+00 -1.51973982E+01
  7.59869910E+00  7.59869910E+00 -1.51973982E+01  7.59869910E+00  7.59869910E+00
 -1.51973982E+01  7.59869910E+00  7.59869910E+00 -1.51973982E+01  7.59869910E+00
  7.59869910E+00 -1.51973982E+01  7.59869910E+00  7.59869910E+00 -1.51973982E+01
  7.59869910E+00  7.59869910E+00 -1.51973982E+01  7.59869910E+00  7.59869910E+00
 -1.51973982E+01  7.59869910E+00  7.59869910E+00 -1.51973982E+01  7.59869910E+00
  7.59869910E+00 -1.51973982E+01  7.59869910E+00  7.59869910E+00 -1.51973982E+01
  7.59869910E+00  7.59869910E+00 -1.51973982E+01  7.59869910E+00  7.59869910E+00
 -1.51973982E+01  7.59869910E+00  7.59869910E+00 -1.51973982E+01  7.59869910E+00
  7.59869910E+00 -1.51973982E+01  7.59869910E+00  7.59869910E+00 -1.51973982E+01
  7.59869910E+00  7.59869910E+00 -1.51973982E+01  7.59869910E+00  7.59869910E+00
 -1.51973982E+01  7.59869910E+00  7.59869910E+00 -1.51973982E+01  7.59869910E+00
  7.59869910E+00 -1.51973982E+01  7.59869910E+00  7.59869910E+00 -1.51973982E+01
  7.59869910E+00  7.59869910E+00 -1.51973982E+01  7.59869910E+00  7.59869910E+00
 -1.51973982E+01  7.59869910E+00  7.59869910E+00 -1.51973982E+01  7.59869910E+00
  7.59869910E+00 -1.51973982E+01  7.59869910E+00  7.59869910E+00 -1.51973982E+01
  7.59869910E+00  7.59869910E+00 -1.51973982E+01  7.59869910E+00  7.59869910E+00
 -1.51973982E+01  7.59869910E+00  7.59869910E+00 -1.51973982E+01  7.59869910E+00
  7.59869910E+00 -1.51973982E+01  7.59869910E+00  7.59869910E+00 -1.51973982E+01
  7.59869910E+00  7.59869910E+00 -1.51973982E+01  7.59869910E+00  7.59869910E+00
 -1.51973982E+01  7.59869910E+00  7.59869910E+00 -1.51973982E+01  7.59869910E+00
  7.59869910E+00 -1.51973982E+01  7.59869910E+00  7.59869910E+00 -1.51973982E+01
  7.59869910E+00  7.59869910E+00 -1.51973982E+01  7.59869910E+00  7.59869910E+00
 -1.51973982E+01  7.59869910E+00  7.59869910E+00 -1.51973982E+01  7.59869910E+00
  7.59869910E+00 -1.51973982E+01  7.59869910E+00  7.59869910E+00 -1.51973982E+01
  7.59869910E+00  7.59869910E+00 -1.51973982E+01  7.59869910E+00  7.59869910E+00
 -1.51973982E+01  7.59869910E+00  7.59869910E+00 -1.51973982E+01  7.59869910E+00
  7.59869910E+00 -1.51973982E+01  7.59869910E+00  7.59869910E+00 -1.51973982E+01
  7.59869910E+00  7.59869910E+00 -1.51973982E+01  7.59869910E+00  7.59869910E+00
 -1.51973982E+01  7.59869910E+00  7.59869910E+00 -1.51973982E+01  7.59869910E+00
  7.59869910E+00 -1.51973982E+01  7.59869910E+00  7.59869910E+00 -1.51973982E+01
  7.59869910E+00  7.59869910E+00 -1.51973982E+01  7.59869910E+00  7.59869910E+00
 -1.51973982E+01  7.59869910E+00  7.59869910E+00 -1.51973982E+01  7.59869910E+00
  7.59869910E+00 -1.51973982E+01  7.59869910E+00  7.59869910E+00 -1.51973982E+01
  7.59869910E+00  7.59869910E+00 -1.51973982E+01  7.59869910E+00  7.59869910E+00
 -1.51973982E+01  7.59869910E+00  7.59869910E+00 -1.51973982E+01  7.59869910E+00
  7.59869910E+00 -1.51973982E+01  7.59869910E+00  7.59869910E+00 -1.51973982E+01
  7.59869910E+00  7.59869910E+00 -1.51973982E+01  7.59869910E+00  7.59869910E+00
 -1.51973982E+01  7.59869910E+00  7.59869910E+00 -1.51973982E+01  7.59869910E+00
  7.59869910E+00 -1.51973982E+01  7.59869910E+00  7.59869910E+00 -1.51973982E+01
  7.59869910E+00  7.59869910E+00 -1.51973982E+01  7.59869910E+00  7.59869910E+00
 -1.51973982E+01  7.59869910E+00  7.59869910E+00 -1.51973982E+01  7.59869910E+00
  7.59869910E+00 -1.51973982E+01  7.59869910E+00  7.59869910E+00 -1.51973982E+01
  7.59869910E+00  7.59869910E+00 -1.51973982E+01  7.59869910E+00  7.59869910E+00
 -1.51973982E+01  7.59869910E+00  7.59869910E+00 -1.51973982E+01  7.59869910E+00
  7.59869910E+00 -1.51973982E+01  7.59869910E+00  7.59869910E+00 -1.51973982E+01
  7.59869910E+00  7.59869910E+00 -1.51973982E+01  7.59869910E+00  7.59869910E+00
 -1.51973982E+01  7.59869910E+00  7.59869910E+00 -1.51973982E+01  7.59869910E+00
  7.59869910E+00 -1.51973982E+01  7.59869910E+00  7.59869910E+00 -1.51973982E+01
  7.59869910E+00  7.59869910E+00 -1.51973982E+01  7.59869910E+00  7.59869910E+00
 -1.51973982E+01  7.59869910E+00  7.59869910E+00 -1.51973982E+01  7.59869910E+00
  7.59869910E+00 -1.51973982E+01  7.59869910E+00  7.59869910E+00 -1.51973982E+01
  7.59869910E+00  7.59869910E+00 -1.51973982E+01  7.59869910E+00  7.59869910E+00
 -1.51973982E+01  7.59869910E+00  7.59869910E+00 -1.51973982E+01  7.59869910E+00
  7.59869910E+00 -1.51973982E+01  7.59869910E+00  7.59869910E+00 -1.51973982E+01
  7.59869910E+00  7.59869910E+00 -1.51973982E+01  7.59869910E+00  7.59869910E+00
 -1.51973982E+01  7.59869910E+00  7.59869910E+00 -1.51973982E+01  7.59869910E+00
  7.59869910E+00 -1.51973982E+01  7.59869910E+00  7.59869910E+00 -1.51973982E+01
  7.59869910E+00  7.59869910E+00 -1.51973982E+01  7.59869910E+00  7.59869910E+00
 -1.51973982E+01  7.59869910E+00  7.59869910E+00 -1.51973982E+01  7.59869910E+00
  7.59869910E+00 -1.51973982E+01  7.59869910E+00  7.59869910E+00 -1.51973982E+01
  7.59869910E+00  7.59869910E+00 -1.51973982E+01  7.59869910E+00  7.59869910E+00
 -1.51973982E+01  7.59869910E+00  7.59869910E+00 -1.51973982E+01  7.59869910E+00
  7.59869910E+00 -1.51973982E+01  7.59869910E+00  7.59869910E+00 -1.51973982E+01
  7.59869910E+00  7.59869910E+00 -1.51973982E+01  7.59869910E+00  7.59869910E+00
 -1.51973982E+01  7.59869910E+00  7.59869910E+00 -1.51973982E+01  7.59869910E+00
  7.59869910E+00 -1.51973982E+01  7.59869910E+00  7.59869910E+00 -1.51973982E+01
  7.59869910E+00  7.59869910E+00 -1.51973982E+01  7.59869910E+00  7.59869910E+00
 -1.51973982E+01  7.59869910E+00  7.59869910E+00 -1.51973982E+01  7.59869910E+00
  7.59869910E+00 -1.51973982E+01  7.59869910E+00  7.59869910E+00 -1.51973982E+01
  7.59869910E+00  7.59869910E+00 -1.51973982E+01  7.59869910E+00  7.59869910E+00
 -1.51973982E+01  7.59869910E+00  7.59869910E+00 -1.51973982E+01  7.59869910E+00
  7.59869910E+00 -1.51973982E+01  7.59869910E+00  7.59869910E+00 -1.51973982E+01
  7.59869910E+00  7.59869910E+00 -1.51973982E+01  7.59869910E+00  7.59869910E+00
 -1.51973982E+01  7.59869910E+00  7.59869910E+00 -1.51973982E+01  7.59869910E+00
  7.59869910E+00 -1.51973982E+01  7.59869910E+00  7.59869910E+00 -1.51973982E+01
  7.59869910E+00  7.59869910E+00 -1.51973982E+01  7.59869910E+00  7.59869910E+00
 -1.51973982E+01  7.59869910E+00  7.59869910E+00 -1.51973982E+01  7.59869910E+00
  7.59869910E+00 -1.51973982E+01  7.59869910E+00  7.59869910E+00 -1.51973982E+01
  7.59869910E+00  7.59869910E+00 -1.51973982E+01  7.59869910E+00  7.59869910E+00
 -1.51973982E+01  7.59869910E+00  7.59869910E+00 -1.51973982E+01  7.59869910E+00
  7.59869910E+00 -1.51973982E+01  7.59869910E+00  7.59869910E+00 -1.51973982E+01
  7.59869910E+00  7.59869910E+00 -1.51973982E+01  7.59869910E+00  7.59869910E+00
 -1.51973982E+01  7.59869910E+00  7.59869910E+00 -1.51973982E+01  7.59869910E+00
  7.59869910E+00 -1.51973982E+01  7.59869910E+00  7.59869910E+00 -1.51973982E+01
  7.59869910E+00  7.59869910E+00 -1.51973982E+01  7.59869910E+00  7.59869910E+00
 -1.51973982E+01  7.59869910E+00  7.59869910E+00 -1.51973982E+01  7.59869910E+00
  7.59869910E+00 -1.51973982E+01  7.59869910E+00  7.59869910E+00 -1.51973982E+01
  7.59869910E+00  7.59869910E+00 -1.51973982E+01  7.59869910E+00  7.59869910E+00
 -1.51973982E+01  7.59869910E+00  7.59869910E+00 -1.51973982E+01  7.59869910E+00
  7.59869910E+00 -1.51973982E+01  7.59869910E+00  7.59869910E+00 -1.51973982E+01
  7.59869910E+00  7.59869910E+00 -1.51973982E+01  7.59869910E+00  7.59869910E+00
 -1.51973982E+01  7.59869910E+00  7.59869910E+00 -1.51973982E+01  7.59869910E+00
  7.59869910E+00 -1.51973982E+01  7.59869910E+00  7.59869910E+00 -1.51973982E+01
  7.59869910E+00  7.59869910E+00 -1.51973982E+01  7.59869910E+00  7.59869910E+00
 -1.51973982E+01  7.59869910E+00  7.59869910E+00 -1.51973982E+01  7.59869910E+00
  7.59869910E+00 -1.51973982E+01  7.59869910E+00  7.59869910E+00 -1.51973982E+01
  7.59869910E+00  7.59869910E+00 -1.51973982E+01  7.59869910E+00  7.59869910E+00
 -1.51973982E+01  7.59869910E+00  7.59869910E+00 -1.51973982E+01  7.59869910E+00
  7.59869910E+00 -1.51973982E+01  7.59869910E+00  7.59869910E+00 -1.51973982E+01
  7.59869910E+00  7.59869910E+00 -1.51973982E+01  7.59869910E+00  7.59869910E+00
 -1.51973982E+01  7.59869910E+00  7.59869910E+00 -1.51973982E+01  7.59869910E+00
  7.59869910E+00 -1.51973982E+01  7.59869910E+00  7.59869910E+00 -1.51973982E+01
  7.59869910E+00  7.59869910E+00 -1.51973982E+01  7.59869910E+00  7.59869910E+00
 -1.51973982E+01  7.59869910E+00  7.59869910E+00 -1.51973982E+01  7.59869910E+00
  7.59869910E+00 -1.51973982E+01  7.59869910E+00  7.59869910E+00 -1.51973982E+01
  7.59869910E+00  7.59869910E+00 -1.51973982E+01  7.59869910E+00  7.59869910E+00
 -1.51973982E+01  7.59869910E+00  7.59869910E+00 -1.51973982E+01  7.59869910E+00
  7.59869910E+00 -1.51973982E+01  7.59869910E+00  7.59869910E+00 -1.51973982E+01
  7.59869910E+00  7.59869910E+00 -1.51973982E+01  7.59869910E+00  7.59869910E+00
 -1.51973982E+01  7.59869910E+00  7.59869910E+00 -1.51973982E+01  7.59869910E+00
  7.59869910E+00 -1.51973982E+01  7.59869910E+00  7.59869910E+00 -1.51973982E+01
  7.59869910E+00  7.59869910E+00 -1.51973982E+01  7.59869910E+00  7.59869910E+00
 -1.51973982E+01  7.59869910E+00  7.59869910E+00 -1.51973982E+01  7.59869910E+00
  7.59869910E+00 -1.51973982E+01  7.59869910E+00  7.59869910E+00 -1.51973982E+01
  7.59869910E+00  7.59869910E+00 -1.51973982E+01  7.59869910E+00  7.59869910E+00
 -1.51973982E+01  7.59869910E+00  7.59869910E+00 -1.51973982E+01  7.59869910E+00
  7.59869910E+00 -1.51973982E+01  7.59869910E+00  7.59869910E+00 -1.51973982E+01
  7.59869910E+00  7.59869910E+00 -1.51973982E+01  7.59869910E+00  7.59869910E+00
 -1.51973982E+01  7.59869910E+00  7.59869910E+00 -1.51973982E+01  7.59869910E+00
  7.59869910E+00 -1.51973982E+01  7.59869910E+00  7.59869910E+00 -1.51973982E+01
  7.59869910E+00  7.59869910E+00 -1.51973982E+01  7.59869910E+00  7.59869910E+00
 -1.51973982E+01  7.59869910E+00  7.59869910E+00 -1.51973982E+01  7.59869910E+00
  7.59869910E+00 -1.51973982E+01  7.59869910E+00  7.59869910E+00 -1.51973982E+01
  7.59869910E+00  7.59869910E+00 -1.51973982E+01  7.59869910E+00  7.59869910E+00
 -1.51973982E+01  7.59869910E+00  7.59869910E+00 -1.51973982E+01  7.59869910E+00
  7.59869910E+00 -1.51973982E+01  7.59869910E+00  7.59869910E+00 -1.51973982E+01
  7.59869910E+00  7.59869910E+00 -1.51973982E+01  7.59869910E+00  7.59869910E+00
 -1.51973982E+01  7.59869910E+00  7.59869910E+00 -1.51973982E+01  7.59869910E+00
  7.59869910E+00 -1.51973982E+01  7.59869910E+00  7.59869910E+00 -1.51973982E+01
  7.59869910E+00  7.59869910E+00 -1.51973982E+01  7.59869910E+00  7.59869910E+00
 -1.51973982E+01  7.59869910E+00  7.59869910E+00 -1.51973982E+01  7.59869910E+00
  7.59869910E+00 -1.51973982E+01  7.59869910E+00  7.59869910E+00 -1.51973982E+01
  7.59869910E+00  7.59869910E+00 -1.51973982E+01  7.59869910E+00  7.59869910E+00
 -1.51973982E+01  7.59869910E+00  7.59869910E+00 -1.51973982E+01  7.59869910E+00
  7.59869910E+00 -1.51973982E+01  7.59869910E+00  7.59869910E+00 -1.51973982E+01
  7.59869910E+00  7.59869910E+00 -1.51973982E+01  7.59869910E+00  7.59869910E+00
 -1.51973982E+01  7.59869910E+00  7.59869910E+00 -1.51973982E+01  7.59869910E+00
  7.59869910E+00 -1.51973982E+01  7.59869910E+00  7.59869910E+00 -1.51973982E+01
  7.59869910E+00  7.59869910E+00 -1.51973982E+01  7.59869910E+00  7.59869910E+00
 -1.51973982E+01  7.59869910E+00  7.59869910E+00 -1.51973982E+01  7.59869910E+00
  7.59869910E+00 -1.51973982E+01  7.59869910E+00  7.59869910E+00 -1.51973982E+01
  7.59869910E+00  7.59869910E+00 -1.51973982E+01  7.59869910E+00  7.59869910E+00
 -1.51973982E+01  7.59869910E+00  7.59869910E+00 -1.51973982E+01  7.59869910E+00
  7.59869910E+00 -1.51973982E+01  7.59869910E+00  7.59869910E+00 -1.51973982E+01
  7.59869910E+00  7.59869910E+00 -1.51973982E+01  7.59869910E+00  7.59869910E+00
 -1.51973982E+01  7.59869910E+00  7.59869910E+00 -1.51973982E+01  7.59869910E+00
  7.59869910E+00 -1.51973982E+01  7.59869910E+00  7.59869910E+00 -1.51973982E+01
  7.59869910E+00  7.59869910E+00 -1.51973982E+01  7.59869910E+00  7.59869910E+00
 -1.51973982E+01  7.59869910E+00  7.59869910E+00 -1.51973982E+01  7.59869910E+00
  7.59869910E+00 -1.51973982E+01  7.59869910E+00  7.59869910E+00 -1.51973982E+01
  7.59869910E+00  7.59869910E+00 -1.51973982E+01  7.59869910E+00  7.59869910E+00
 -1.51973982E+01  7.59869910E+00  7.59869910E+00 -1.51973982E+01  7.59869910E+00
  7.59869910E+00 -1.51973982E+01  7.59869910E+00  7.59869910E+00 -1.51973982E+01
  7.59869910E+00  7.59869910E+00 -1.51973982E+01  7.59869910E+00  7.59869910E+00
 -1.51973982E+01  7.59869910E+00  7.59869910E+00 -1.51973982E+01  7.59869910E+00
  7.59869910E+00 -1.51973982E+01  7.59869910E+00  7.59869910E+00 -1.51973982E+01
  7.59869910E+00  7.59869910E+00 -1.51973982E+01  7.59869910E+00  7.59869910E+00
 -1.51973982E+01  7.59869910E+00  7.59869910E+00 -1.51973982E+01  7.59869910E+00
  7.59869910E+00 -1.51973982E+01  7.59869910E+00  7.59869910E+00 -1.51973982E+01
  7.59869910E+00  7.59869910E+00 -1.51973982E+01  7.59869910E+00  7.59869910E+00
 -1.51973982E+01  7.59869910E+00  7.59869910E+00 -1.51973982E+01  7.59869910E+00
  7.59869910E+00 -1.51973982E+01  7.59869910E+00  7.59869910E+00 -1.51973982E+01
  7.59869910E+00  7.59869910E+00 -1.51973982E+01  7.59869910E+00  7.59869910E+00
 -1.51973982E+01  7.59869910E+00  7.59869910E+00 -1.51973982E+01  7.59869910E+00
  7.59869910E+00 -1.51973982E+01  7.59869910E+00  7.59869910E+00 -1.51973982E+01
  7.59869910E+00  7.59869910E+00 -1.51973982E+01  7.59869910E+00  7.59869910E+00
 -1.51973982E+01  7.59869910E+00  7.59869910E+00 -1.51973982E+01  7.59869910E+00
  7.59869910E+00 -1.51973982E+01  7.59869910E+00  7.59869910E+00 -1.51973982E+01
  7.59869910E+00  7.59869910E+00 -1.51973982E+01  7.59869910E+00  7.59869910E+00
 -1.51973982E+01  7.59869910E+00  7.59869910E+00 -1.51973982E+01  7.59869910E+00
  7.59869910E+00 -1.51973982E+01  7.59869910E+00  7.59869910E+00 -1.51973982E+01
  7.59869910E+00  7.59869910E+00 -1.51973982E+01  7.59869910E+00  7.59869910E+00
 -1.51973982E+01  7.59869910E+00  7.59869910E+00 -1.51973982E+01  7.59869910E+00
  7.59869910E+00 -1.51973982E+01  7.59869910E+00  7.59869910E+00 -1.51973982E+01
  7.59869910E+00  7.59869910E+00 -1.51973982E+01  7.59869910E+00  7.59869910E+00
 -1.51973982E+01  7.59869910E+00  7.59869910E+00 -1.51973982E+01  7.59869910E+00
  7.59869910E+00 -1.51973982E+01  7.59869910E+00  7.59869910E+00 -1.51973982E+01
  7.59869910E+00  7.59869910E+00 -1.51973982E+01  7.59869910E+00  7.59869910E+00
 -1.51973982E+01  7.59869910E+00  7.59869910E+00 -1.51973982E+01  7.59869910E+00
  7.59869910E+00 -1.51973982E+01  7.59869910E+00  7.59869910E+00 -1.51973982E+01
  7.59869910E+00  7.59869910E+00 -1.51973982E+01  7.59869910E+00  7.59869910E+00
 -1.51973982E+01  7.59869910E+00  7.59869910E+00 -1.51973982E+01  7.59869910E+00
  7.59869910E+00 -1.51973982E+01  7.59869910E+00  7.59869910E+00 -1.51973982E+01
  7.59869910E+00  7.59869910E+00 -1.51973982E+01  7.59869910E+00  7.59869910E+00
 -1.51973982E+01  7.59869910E+00  7.59869910E+00 -1.51973982E+01  7.59869910E+00
  7.59869910E+00 -1.51973982E+01  7.59869910E+00  7.59869910E+00 -1.51973982E+01
  7.59869910E+00  7.59869910E+00 -1.51973982E+01  7.59869910E+00  7.59869910E+00
 -1.51973982E+01  7.59869910E+00  7.59869910E+00 -1.51973982E+01  7.59869910E+00
  7.59869910E+00 -1.51973982E+01  7.59869910E+00  7.59869910E+00 -1.51973982E+01
  7.59869910E+00  7.59869910E+00 -1.51973982E+01  7.59869910E+00  7.59869910E+00
 -1.51973982E+01  7.59869910E+00  7.59869910E+00 -1.51973982E+01  7.59869910E+00
  7.59869910E+00 -1.51973982E+01  7.59869910E+00  7.59869910E+00 -1.51973982E+01
  7.59869910E+00  7.59869910E+00 -1.51973982E+01  7.59869910E+00  7.59869910E+00
 -1.51973982E+01  7.59869910E+00  7.59869910E+00 -1.51973982E+01  7.59869910E+00
  7.59869910E+00 -1.51973982E+01  7.59869910E+00  7.59869910E+00 -1.51973982E+01
  7.59869910E+00  7.59869910E+00 -1.51973982E+01  7.59869910E+00  7.59869910E+00
 -1.51973982E+01  7.59869910E+00  7.59869910E+00 -1.51973982E+01  7.59869910E+00
  7.59869910E+00 -1.51973982E+01  7.59869910E+00  7.59869910E+00 -1.51973982E+01
  7.59869910E+00  7.59869910E+00 -1.51973982E+01  7.59869910E+00  7.59869910E+00
 -1.51973982E+01  7.59869910E+00  7.59869910E+00 -1.51973982E+01  7.59869910E+00
  7.59869910E+00 -1.51973982E+01  7.59869910E+00  7.59869910E+00 -1.51973982E+01
  7.59869910E+00  7.59869910E+00 -1.51973982E+01  7.59869910E+00  7.59869910E+00
 -1.51973982E+01  7.59869910E+00  7.59869910E+00 -1.51973982E+01  7.59869910E+00
  7.59869910E+00 -1.51973982E+01  7.59869910E+00  7.59869910E+00 -1.51973982E+01
  7.59869910E+00  7.59869910E+00 -1.51973982E+01  7.59869910E+00  7.59869910E+00
 -1.51973982E+01  7.59869910E+00  7.59869910E+00 -1.51973982E+01  7.59869910E+00
  7.59869910E+00 -1.51973982E+01  7.59869910E+00  7.59869910E+00 -1.51973982E+01
  7.59869910E+00  7.59869910E+00 -1.51973982E+01  7.59869910E+00  7.59869910E+00
 -1.51973982E+01  7.59869910E+00  7.59869910E+00 -1.51973982E+01  7.59869910E+00
  7.59869910E+00 -1.51973982E+01  7.59869910E+00  7.59869910E+00 -1.51973982E+01
  7.59869910E+00  7.59869910E+00 -1.51973982E+01  7.59869910E+00  7.59869910E+00
 -1.51973982E+01  7.59869910E+00  7.59869910E+00 -1.51973982E+01  7.59869910E+00
  7.59869910E+00 -1.51973982E+01  7.59869910E+00  7.59869910E+00 -1.51973982E+01
  7.59869910E+00  7.59869910E+00 -1.51973982E+01  7.59869910E+00  7.59869910E+00
 -1.51973982E+01  7.59869910E+00  7.59869910E+00 -1.51973982E+01  7.59869910E+00
  7.59869910E+00 -1.51973982E+01  7.59869910E+00  7.59869910E+00 -1.51973982E+01
  7.59869910E+00  7.59869910E+00 -1.51973982E+01  7.59869910E+00  7.59869910E+00
 -1.51973982E+01  7.59869910E+00  7.59869910E+00 -1.51973982E+01  7.59869910E+00
  7.59869910E+00 -1.51973982E+01  7.59869910E+00  7.59869910E+00 -1.51973982E+01
  7.59869910E+00  7.59869910E+00 -1.51973982E+01  7.59869910E+00  7.59869910E+00
 -1.51973982E+01  7.59869910E+00  7.59869910E+00 -1.51973982E+01  7.59869910E+00
  7.59869910E+00 -1.51973982E+01  7.59869910E+00  7.59869910E+00 -1.51973982E+01
  7.59869910E+00  7.59869910E+00 -1.51973982E+01  7.59869910E+00  7.59869910E+00
 -1.51973982E+01  7.59869910E+00  7.59869910E+00 -1.51973982E+01  7.59869910E+00
  7.59869910E+00 -1.51973982E+01  7.59869910E+00  7.59869910E+00 -1.51973982E+01
  7.59869910E+00  7.59869910E+00 -1.51973982E+01  7.59869910E+00  7.59869910E+00
 -1.51973982E+01  7.59869910E+00  7.59869910E+00 -1.51973982E+01  7.59869910E+00
  7.59869910E+00 -1.51973982E+01  7.59869910E+00  7.59869910E+00 -1.51973982E+01
  7.59869910E+00  7.59869910E+00 -1.51973982E+01  7.59869910E+00  7.59869910E+00
 -1.51973982E+01  7.59869910E+00  7.59869910E+00 -1.51973982E+01  7.59869910E+00
  7.59869910E+00 -1.51973982E+01  7.59869910E+00  7.59869910E+00 -1.51973982E+01
  7.59869910E+00  7.59869910E+00 -1.51973982E+01  7.59869910E+00  7.59869910E+00
 -1.51973982E+01  7.59869910E+00  7.59869910E+00 -1.51973982E+01  7.59869910E+00
  7.59869910E+00 -1.51973982E+01  7.59869910E+00  7.59869910E+00 -1.51973982E+01
  7.59869910E+00  7.59869910E+00 -1.51973982E+01  7.59869910E+00  7.59869910E+00
 -1.51973982E+01  7.59869910E+00  7.59869910E+00 -1.51973982E+01  7.59869910E+00
  7.59869910E+00 -1.51973982E+01  7.59869910E+00  7.59869910E+00 -1.51973982E+01
  7.59869910E+00  7.59869910E+00 -1.51973982E+01  7.59869910E+00  7.59869910E+00
 -1.51973982E+01  7.59869910E+00  7.59869910E+00 -1.51973982E+01  7.59869910E+00
  7.59869910E+00 -1.51973982E+01  7.59869910E+00  7.59869910E+00 -1.51973982E+01
  7.59869910E+00  7.59869910E+00 -1.51973982E+01  7.59869910E+00  7.59869910E+00
 -1.51973982E+01  7.59869910E+00  7.59869910E+00 -1.51973982E+01  7.59869910E+00
  7.59869910E+00 -1.51973982E+01  7.59869910E+00  7.59869910E+00 -1.51973982E+01
  7.59869910E+00  7.59869910E+00 -1.51973982E+01  7.59869910E+00  7.59869910E+00
 -1.51973982E+01  7.59869910E+00  7.59869910E+00 -1.51973982E+01  7.59869910E+00
  7.59869910E+00 -1.51973982E+01  7.59869910E+00  7.59869910E+00 -1.51973982E+01
  7.59869910E+00  7.59869910E+00 -1.51973982E+01  7.59869910E+00  7.59869910E+00
 -1.51973982E+01  7.59869910E+00  7.59869910E+00 -1.51973982E+01  7.59869910E+00
  7.59869910E+00 -1.51973982E+01  7.59869910E+00  7.59869910E+00 -1.51973982E+01
  7.59869910E+00  7.59869910E+00 -1.51973982E+01  7.59869910E+00  7.59869910E+00
 -1.51973982E+01  7.59869910E+00  7.59869910E+00 -1.51973982E+01  7.59869910E+00
  7.59869910E+00 -1.51973982E+01  7.59869910E+00  7.59869910E+00 -1.51973982E+01
  7.59869910E+00  7.59869910E+00 -1.51973982E+01  7.59869910E+00  7.59869910E+00
 -1.51973982E+01  7.59869910E+00  7.59869910E+00 -1.51973982E+01  7.59869910E+00
  7.59869910E+00 -1.51973982E+01  7.59869910E+00  7.59869910E+00 -1.51973982E+01
  7.59869910E+00  7.59869910E+00 -1.51973982E+01  7.59869910E+00  7.59869910E+00
 -1.51973982E+01  7.59869910E+00  7.59869910E+00 -1.51973982E+01  7.59869910E+00
  7.59869910E+00 -1.51973982E+01  7.59869910E+00  7.59869910E+00 -1.51973982E+01
  7.59869910E+00  7.59869910E+00 -1.51973982E+01  7.59869910E+00  7.59869910E+00
 -1.51973982E+01  7.59869910E+00  7.59869910E+00 -1.51973982E+01  7.59869910E+00
  7.59869910E+00 -1.51973982E+01  7.59869910E+00  7.59869910E+00 -1.51973982E+01
  7.59869910E+00  7.59869910E+00 -1.51973982E+01  7.59869910E+00  7.59869910E+00
 -1.51973982E+01  7.59869910E+00  7.59869910E+00 -1.51973982E+01  7.59869910E+00
  7.59869910E+00 -1.51973982E+01  7.59869910E+00  7.59869910E+00 -1.51973982E+01
  7.59869910E+00  7.59869910E+00 -1.51973982E+01  7.59869910E+00  7.59869910E+00
 -1.51973982E+01  7.59869910E+00  7.59869910E+00 -1.51973982E+01  7.59869910E+00
  7.59869910E+00 -1.51973982E+01  7.59869910E+00  7.59869910E+00 -1.51973982E+01
  7.59869910E+00  7.59869910E+00 -1.51973982E+01  7.59869910E+00  7.59869910E+00
 -1.51973982E+01  7.59869910E+00  7.59869910E+00 -1.51973982E+01  7.59869910E+00
  7.59869910E+00 -1.51973982E+01  7.59869910E+00  7.59869910E+00 -1.51973982E+01
  7.59869910E+00  7.59869910E+00 -1.51973982E+01  7.59869910E+00  7.59869910E+00
 -1.51973982E+01  7.59869910E+00  7.59869910E+00 -1.51973982E+01  7.59869910E+00
  7.59869910E+00 -1.51973982E+01  7.59869910E+00  7.59869910E+00 -1.51973982E+01
  7.59869910E+00  7.59869910E+00 -1.51973982E+01  7.59869910E+00  7.59869910E+00
 -1.51973982E+01  7.59869910E+00  7.59869910E+00 -1.51973982E+01  7.59869910E+00
  7.59869910E+00 -1.51973982E+01  7.59869910E+00  7.59869910E+00 -1.51973982E+01
  7.59869910E+00  7.59869910E+00 -1.51973982E+01  7.59869910E+00  7.59869910E+00
 -1.51973982E+01  7.59869910E+00  7.59869910E+00 -1.51973982E+01  7.59869910E+00
  7.59869910E+00 -1.51973982E+01  7.59869910E+00  7.59869910E+00 -1.51973982E+01
  7.59869910E+00  7.59869910E+00 -1.51973982E+01  7.59869910E+00  7.59869910E+00
 -1.51973982E+01  7.59869910E+00  7.59869910E+00 -1.51973982E+01  7.59869910E+00
  7.59869910E+00 -1.51973982E+01  7.59869910E+00  7.59869910E+00 -1.51973982E+01
  7.59869910E+00  7.59869910E+00 -1.51973982E+01  7.59869910E+00  7.59869910E+00
 -1.51973982E+01  7.59869910E+00  7.59869910E+00 -1.51973982E+01  7.59869910E+00
  7.59869910E+00 -1.51973982E+01  7.59869910E+00  7.59869910E+00 -1.51973982E+01
  7.59869910E+00  7.59869910E+00 -1.51973982E+01  7.59869910E+00  7.59869910E+00
 -1.51973982E+01  7.59869910E+00  7.59869910E+00 -1.51973982E+01  7.59869910E+00
  7.59869910E+00 -1.51973982E+01  7.59869910E+00  7.59869910E+00 -1.51973982E+01
  7.59869910E+00  7.59869910E+00 -1.51973982E+01  7.59869910E+00  7.59869910E+00
 -1.51973982E+01  7.59869910E+00  7.59869910E+00 -1.51973982E+01  7.59869910E+00
  7.59869910E+00 -1.51973982E+01  7.59869910E+00  7.59869910E+00 -1.51973982E+01
  7.59869910E+00  7.59869910E+00 -1.51973982E+01  7.59869910E+00  7.59869910E+00
 -1.51973982E+01  7.59869910E+00  7.59869910E+00 -1.51973982E+01  7.59869910E+00
  7.59869910E+00 -1.51973982E+01  7.59869910E+00  7.59869910E+00 -1.51973982E+01
  7.59869910E+00  7.59869910E+00 -1.51973982E+01  7.59869910E+00  7.59869910E+00
 -1.51973982E+01  7.59869910E+00  7.59869910E+00 -1.51973982E+01  7.59869910E+00
  7.59869910E+00 -1.51973982E+01  7.59869910E+00  7.59869910E+00 -1.51973982E+01
  7.59869910E+00  7.59869910E+00 -1.51973982E+01  7.59869910E+00  7.59869910E+00
 -1.51973982E+01  7.59869910E+00  7.59869910E+00 -1.51973982E+01  7.59869910E+00
  7.59869910E+00 -1.51973982E+01  7.59869910E+00  7.59869910E+00 -1.51973982E+01
  7.59869910E+00  7.59869910E+00 -1.51973982E+01  7.59869910E+00  7.59869910E+00
 -1.51973982E+01  7.59869910E+00  7.59869910E+00 -1.51973982E+01  7.59869910E+00
  7.59869910E+00 -1.51973982E+01  7.59869910E+00  7.59869910E+00 -1.51973982E+01
  7.59869910E+00  7.59869910E+00 -1.51973982E+01  7.59869910E+00  7.59869910E+00
 -1.51973982E+01  7.59869910E+00  7.59869910E+00 -1.51973982E+01  7.59869910E+00
  7.59869910E+00 -1.51973982E+01  7.59869910E+00  7.59869910E+00 -1.51973982E+01
  7.59869910E+00  7.59869910E+00 -1.51973982E+01  7.59869910E+00  7.59869910E+00
 -1.51973982E+01  7.59869910E+00  7.59869910E+00 -1.51973982E+01  7.59869910E+00
  7.59869910E+00 -1.51973982E+01  7.59869910E+00  7.59869910E+00 -1.51973982E+01
  7.59869910E+00  7.59869910E+00 -1.51973982E+01  7.59869910E+00  7.59869910E+00
 -1.51973982E+01  7.59869910E+00  7.59869910E+00 -1.51973982E+01  7.59869910E+00
  7.59869910E+00 -1.51973982E+01  7.59869910E+00  7.59869910E+00 -1.51973982E+01
  7.59869910E+00  7.59869910E+00 -1.51973982E+01  7.59869910E+00  7.59869910E+00
 -1.51973982E+01  7.59869910E+00  7.59869910E+00 -1.51973982E+01  7.59869910E+00
  7.59869910E+00 -1.51973982E+01  7.59869910E+00  7.59869910E+00 -1.51973982E+01
  7.59869910E+00  7.59869910E+00 -1.51973982E+01  7.59869910E+00  7.59869910E+00
 -1.51973982E+01  7.59869910E+00  7.59869910E+00 -1.51973982E+01  7.59869910E+00
  7.59869910E+00 -1.51973982E+01  7.59869910E+00  7.59869910E+00 -1.51973982E+01
  7.59869910E+00  7.59869910E+00 -1.51973982E+01  7.59869910E+00  7.59869910E+00
 -1.51973982E+01  7.59869910E+00  7.59869910E+00 -1.51973982E+01  7.59869910E+00
  7.59869910E+00 -1.51973982E+01  7.59869910E+00  7.59869910E+00 -1.51973982E+01
  7.59869910E+00  7.59869910E+00 -1.51973982E+01  7.59869910E+00  7.59869910E+00
 -1.51973982E+01  7.59869910E+00  7.59869910E+00 -1.51973982E+01  7.59869910E+00
  7.59869910E+00 -1.51973982E+01  7.59869910E+00  7.59869910E+00 -1.51973982E+01
  7.59869910E+00  7.59869910E+00 -1.51973982E+01  7.59869910E+00  7.59869910E+00
 -1.51973982E+01  7.59869910E+00  7.59869910E+00 -1.51973982E+01  7.59869910E+00
  7.59869910E+00 -1.51973982E+01  7.59869910E+00  7.59869910E+00 -1.51973982E+01
  7.59869910E+00  7.59869910E+00 -1.51973982E+01  7.59869910E+00  7.59869910E+00
 -1.51973982E+01  7.59869910E+00  7.59869910E+00 -1.51973982E+01  7.59869910E+00
  7.59869910E+00 -1.51973982E+01  7.59869910E+00  7.59869910E+00 -1.51973982E+01
  7.59869910E+00  7.59869910E+00 -1.51973982E+01  7.59869910E+00  7.59869910E+00
 -1.51973982E+01  7.59869910E+00  7.59869910E+00 -1.51973982E+01  7.59869910E+00
  7.59869910E+00 -1.51973982E+01  7.59869910E+00  7.59869910E+00 -1.51973982E+01
  7.59869910E+00  7.59869910E+00 -1.51973982E+01  7.59869910E+00  7.59869910E+00
 -1.51973982E+01  7.59869910E+00  7.59869910E+00 -1.51973982E+01  7.59869910E+00
  7.59869910E+00 -1.51973982E+01  7.59869910E+00  7.59869910E+00 -1.51973982E+01
  7.59869910E+00  7.59869910E+00 -1.51973982E+01  7.59869910E+00  7.59869910E+00
 -1.51973982E+01  7.59869910E+00  7.59869910E+00 -1.51973982E+01  7.59869910E+00
  7.59869910E+00 -1.51973982E+01  7.59869910E+00  7.59869910E+00 -1.51973982E+01
  7.59869910E+00  7.59869910E+00 -1.51973982E+01  7.59869910E+00  7.59869910E+00
 -1.51973982E+01  7.59869910E+00  7.59869910E+00 -1.51973982E+01  7.59869910E+00
  7.59869910E+00 -1.51973982E+01  7.59869910E+00  7.59869910E+00 -1.51973982E+01
  7.59869910E+00  7.59869910E+00 -1.51973982E+01  7.59869910E+00  7.59869910E+00
 -1.51973982E+01  7.59869910E+00  7.59869910E+00 -1.51973982E+01  7.59869910E+00
  7.59869910E+00 -1.51973982E+01  7.59869910E+00  7.59869910E+00 -1.51973982E+01
  7.59869910E+00  7.59869910E+00 -1.51973982E+01  7.59869910E+00  7.59869910E+00
 -1.51973982E+01  7.59869910E+00  7.59869910E+00 -1.51973982E+01  7.59869910E+00
  7.59869910E+00 -1.51973982E+01  7.59869910E+00  7.59869910E+00 -1.51973982E+01
  7.59869910E+00  7.59869910E+00 -1.51973982E+01  7.59869910E+00  7.59869910E+00
 -1.51973982E+01  7.59869910E+00  7.59869910E+00 -1.51973982E+01  7.59869910E+00
  7.59869910E+00 -1.51973982E+01  7.59869910E+00  7.59869910E+00 -1.51973982E+01
  7.59869910E+00  7.59869910E+00 -1.51973982E+01  7.59869910E+00  7.59869910E+00
 -1.51973982E+01  7.59869910E+00  7.59869910E+00 -1.51973982E+01  7.59869910E+00
  7.59869910E+00 -1.51973982E+01  7.59869910E+00  7.59869910E+00 -1.51973982E+01
  7.59869910E+00  7.59869910E+00 -1.51973982E+01  7.59869910E+00  7.59869910E+00
 -1.51973982E+01  7.59869910E+00  7.59869910E+00 -1.51973982E+01  7.59869910E+00
  7.59869910E+00 -1.51973982E+01  7.59869910E+00  7.59869910E+00 -1.51973982E+01
  7.59869910E+00  7.59869910E+00 -1.51973982E+01  7.59869910E+00  7.59869910E+00
 -1.51973982E+01  7.59869910E+00  7.59869910E+00 -1.51973982E+01  7.59869910E+00
  7.59869910E+00 -1.51973982E+01  7.59869910E+00  7.59869910E+00 -1.51973982E+01
  7.59869910E+00  7.59869910E+00 -1.51973982E+01  7.59869910E+00  7.59869910E+00
 -1.51973982E+01  7.59869910E+00  7.59869910E+00 -1.51973982E+01  7.59869910E+00
  7.59869910E+00 -1.51973982E+01  7.59869910E+00  7.59869910E+00 -1.51973982E+01
  7.59869910E+00  7.59869910E+00 -1.51973982E+01  7.59869910E+00  7.59869910E+00
 -1.51973982E+01  7.59869910E+00  7.59869910E+00 -1.51973982E+01  7.59869910E+00
  7.59869910E+00 -1.51973982E+01  7.59869910E+00  7.59869910E+00 -1.51973982E+01
  7.59869910E+00  7.59869910E+00 -1.51973982E+01  7.59869910E+00  7.59869910E+00
 -1.51973982E+01  7.59869910E+00  7.59869910E+00 -1.51973982E+01  7.59869910E+00
  7.59869910E+00 -1.51973982E+01  7.59869910E+00  7.59869910E+00 -1.51973982E+01
  7.59869910E+00  7.59869910E+00 -1.51973982E+01  7.59869910E+00  7.59869910E+00
 -1.51973982E+01  7.59869910E+00  7.59869910E+00 -1.51973982E+01  7.59869910E+00
  7.59869910E+00 -1.51973982E+01  7.59869910E+00  7.59869910E+00 -1.51973982E+01
  7.59869910E+00  7.59869910E+00 -1.51973982E+01  7.59869910E+00  7.59869910E+00
 -1.51973982E+01  7.59869910E+00  7.59869910E+00 -1.51973982E+01  7.59869910E+00
  7.59869910E+00 -1.51973982E+01  7.59869910E+00  7.59869910E+00 -1.51973982E+01
  7.59869910E+00  7.59869910E+00 -1.51973982E+01  7.59869910E+00  7.59869910E+00
 -1.51973982E+01  7.59869910E+00  7.59869910E+00 -1.51973982E+01  7.59869910E+00
  7.59869910E+00 -1.51973982E+01  7.59869910E+00  7.59869910E+00 -1.51973982E+01
  7.59869910E+00  7.59869910E+00 -1.51973982E+01  7.59869910E+00  7.59869910E+00
 -1.51973982E+01  7.59869910E+00  7.59869910E+00 -1.51973982E+01  7.59869910E+00
  7.59869910E+00 -1.51973982E+01  7.59869910E+00  7.59869910E+00 -1.51973982E+01
  7.59869910E+00  7.59869910E+00 -1.51973982E+01  7.59869910E+00  7.59869910E+00
 -1.51973982E+01  7.59869910E+00  7.59869910E+00 -1.51973982E+01  7.59869910E+00
  7.59869910E+00 -1.51973982E+01  7.59869910E+00  7.59869910E+00 -1.51973982E+01
  7.59869910E+00  7.59869910E+00 -1.51973982E+01  7.59869910E+00  7.59869910E+00
 -1.51973982E+01  7.59869910E+00  7.59869910E+00 -1.51973982E+01  7.59869910E+00
  7.59869910E+00 -1.51973982E+01  7.59869910E+00  7.59869910E+00 -1.51973982E+01
  7.59869910E+00  7.59869910E+00 -1.51973982E+01  7.59869910E+00  7.59869910E+00
 -1.51973982E+01  7.59869910E+00  7.59869910E+00 -1.51973982E+01  7.59869910E+00
  7.59869910E+00 -1.51973982E+01  7.59869910E+00  7.59869910E+00 -1.51973982E+01
  7.59869910E+00  7.59869910E+00 -1.51973982E+01  7.59869910E+00  7.59869910E+00
 -1.51973982E+01  7.59869910E+00  7.59869910E+00 -1.51973982E+01  7.59869910E+00
  7.59869910E+00 -1.51973982E+01  7.59869910E+00  7.59869910E+00 -1.51973982E+01
  7.59869910E+00  7.59869910E+00 -1.51973982E+01  7.59869910E+00  7.59869910E+00
 -1.51973982E+01  7.59869910E+00  7.59869910E+00 -1.51973982E+01  7.59869910E+00
  7.59869910E+00 -1.51973982E+01  7.59869910E+00  7.59869910E+00 -1.51973982E+01
  7.59869910E+00  7.59869910E+00 -1.51973982E+01  7.59869910E+00  7.59869910E+00
 -1.51973982E+01  7.59869910E+00  7.59869910E+00 -1.51973982E+01  7.59869910E+00
  7.59869910E+00 -1.51973982E+01  7.59869910E+00  7.59869910E+00 -1.51973982E+01
  7.59869910E+00  7.59869910E+00 -1.51973982E+01  7.59869910E+00  7.59869910E+00
 -1.51973982E+01  7.59869910E+00  7.59869910E+00 -1.51973982E+01  7.59869910E+00
  7.59869910E+00 -1.51973982E+01  7.59869910E+00  7.59869910E+00 -1.51973982E+01
  7.59869910E+00  7.59869910E+00 -1.51973982E+01  7.59869910E+00  7.59869910E+00
 -1.51973982E+01  7.59869910E+00  7.59869910E+00 -1.51973982E+01  7.59869910E+00
  7.59869910E+00 -1.51973982E+01  7.59869910E+00  7.59869910E+00 -1.51973982E+01
  7.59869910E+00  7.59869910E+00 -1.51973982E+01  7.59869910E+00  7.59869910E+00
 -1.51973982E+01  7.59869910E+00  7.59869910E+00 -1.51973982E+01  7.59869910E+00
  7.59869910E+00 -1.51973982E+01  7.59869910E+00  7.59869910E+00 -1.51973982E+01
  7.59869910E+00  7.59869910E+00 -1.51973982E+01  7.59869910E+00  7.59869910E+00
 -1.51973982E+01  7.59869910E+00  7.59869910E+00 -1.51973982E+01  7.59869910E+00
  7.59869910E+00 -1.51973982E+01  7.59869910E+00  7.59869910E+00 -1.51973982E+01
  7.59869910E+00  7.59869910E+00 -1.51973982E+01  7.59869910E+00  7.59869910E+00
 -1.51973982E+01  7.59869910E+00  7.59869910E+00 -1.51973982E+01  7.59869910E+00
  7.59869910E+00 -1.51973982E+01  7.59869910E+00  7.59869910E+00 -1.51973982E+01
  7.59869910E+00  7.59869910E+00 -1.51973982E+01  7.59869910E+00  7.59869910E+00
 -1.51973982E+01  7.59869910E+00  7.59869910E+00 -1.51973982E+01  7.59869910E+00
  7.59869910E+00 -1.51973982E+01  7.59869910E+00  7.59869910E+00 -1.51973982E+01
  7.59869910E+00  7.59869910E+00 -1.51973982E+01  7.59869910E+00  7.59869910E+00
 -1.51973982E+01  7.59869910E+00  7.59869910E+00 -1.51973982E+01  7.59869910E+00
  7.59869910E+00 -1.51973982E+01  7.59869910E+00  7.59869910E+00 -1.51973982E+01
  7.59869910E+00  7.59869910E+00 -1.51973982E+01  7.59869910E+00  7.59869910E+00
 -1.51973982E+01  7.59869910E+00  7.59869910E+00 -1.51973982E+01  7.59869910E+00
  7.59869910E+00 -1.51973982E+01  7.59869910E+00  7.59869910E+00 -1.51973982E+01
  7.59869910E+00  7.59869910E+00 -1.51973982E+01  7.59869910E+00  7.59869910E+00
 -1.51973982E+01  7.59869910E+00  7.59869910E+00 -1.51973982E+01  7.59869910E+00
  7.59869910E+00 -1.51973982E+01  7.59869910E+00  7.59869910E+00 -1.51973982E+01
  7.59869910E+00  7.59869910E+00 -1.51973982E+01  7.59869910E+00  7.59869910E+00
 -1.51973982E+01  7.59869910E+00  7.59869910E+00 -1.51973982E+01  7.59869910E+00
  7.59869910E+00 -1.51973982E+01  7.59869910E+00  7.59869910E+00 -1.51973982E+01
  7.59869910E+00  7.59869910E+00 -1.51973982E+01  7.59869910E+00  7.59869910E+00
 -1.51973982E+01  7.59869910E+00  7.59869910E+00 -1.51973982E+01  7.59869910E+00
  7.59869910E+00 -1.51973982E+01  7.59869910E+00  7.59869910E+00 -1.51973982E+01
  7.59869910E+00  7.59869910E+00 -1.51973982E+01  7.59869910E+00  7.59869910E+00
 -1.51973982E+01  7.59869910E+00  7.59869910E+00 -1.51973982E+01  7.59869910E+00
  7.59869910E+00 -1.51973982E+01  7.59869910E+00  7.59869910E+00 -1.51973982E+01
  7.59869910E+00  7.59869910E+00 -1.51973982E+01  7.59869910E+00  7.59869910E+00
 -1.51973982E+01  7.59869910E+00  7.59869910E+00 -1.51973982E+01  7.59869910E+00
  7.59869910E+00 -1.51973982E+01  7.59869910E+00  7.59869910E+00 -1.51973982E+01
  7.59869910E+00  7.59869910E+00 -1.51973982E+01  7.59869910E+00  7.59869910E+00
 -1.51973982E+01  7.59869910E+00  7.59869910E+00 -1.51973982E+01  7.59869910E+00
  7.59869910E+00 -1.51973982E+01  7.59869910E+00  7.59869910E+00 -1.51973982E+01
  7.59869910E+00  7.59869910E+00 -1.51973982E+01  7.59869910E+00  7.59869910E+00
 -1.51973982E+01  7.59869910E+00  7.59869910E+00 -1.51973982E+01  7.59869910E+00
  7.59869910E+00 -1.51973982E+01  7.59869910E+00  7.59869910E+00 -1.51973982E+01
  7.59869910E+00  7.59869910E+00 -1.51973982E+01  7.59869910E+00  7.59869910E+00
 -1.51973982E+01  7.59869910E+00  7.59869910E+00 -1.51973982E+01  7.59869910E+00
  7.59869910E+00 -1.51973982E+01  7.59869910E+00  7.59869910E+00 -1.51973982E+01
  7.59869910E+00  7.59869910E+00 -1.51973982E+01  7.59869910E+00  7.59869910E+00
 -1.51973982E+01  7.59869910E+00  7.59869910E+00 -1.51973982E+01  7.59869910E+00
  7.59869910E+00 -1.51973982E+01  7.59869910E+00  7.59869910E+00 -1.51973982E+01
  7.59869910E+00  7.59869910E+00 -1.51973982E+01  7.59869910E+00  7.59869910E+00
 -1.51973982E+01  7.59869910E+00  7.59869910E+00 -1.51973982E+01  7.59869910E+00
  7.59869910E+00 -1.51973982E+01  7.59869910E+00  7.59869910E+00 -1.51973982E+01
  7.59869910E+00  7.59869910E+00 -1.51973982E+01  7.59869910E+00  7.59869910E+00
 -1.51973982E+01  7.59869910E+00  7.59869910E+00 -1.51973982E+01  7.59869910E+00
  7.59869910E+00 -1.51973982E+01  7.59869910E+00  7.59869910E+00 -1.51973982E+01
  7.59869910E+00  7.59869910E+00 -1.51973982E+01  7.59869910E+00  7.59869910E+00
 -1.51973982E+01  7.59869910E+00  7.59869910E+00 -1.51973982E+01  7.59869910E+00
  7.59869910E+00 -1.51973982E+01  7.59869910E+00  7.59869910E+00 -1.51973982E+01
  7.59869910E+00  7.59869910E+00 -1.51973982E+01  7.59869910E+00  7.59869910E+00
 -1.51973982E+01  7.59869910E+00  7.59869910E+00 -1.51973982E+01  7.59869910E+00
  7.59869910E+00 -1.51973982E+01  7.59869910E+00  7.59869910E+00 -1.51973982E+01
  7.59869910E+00  7.59869910E+00 -1.51973982E+01  7.59869910E+00  7.59869910E+00
 -1.51973982E+01  7.59869910E+00  7.59869910E+00 -1.51973982E+01  7.59869910E+00
  7.59869910E+00 -1.51973982E+01  7.59869910E+00  7.59869910E+00 -1.51973982E+01
  7.59869910E+00  7.59869910E+00 -1.51973982E+01  7.59869910E+00  7.59869910E+00
 -1.51973982E+01  7.59869910E+00  7.59869910E+00 -1.51973982E+01  7.59869910E+00
  7.59869910E+00 -1.51973982E+01  7.59869910E+00  7.59869910E+00 -1.51973982E+01
  7.59869910E+00  7.59869910E+00 -1.51973982E+01  7.59869910E+00  7.59869910E+00
 -1.51973982E+01  7.59869910E+00  7.59869910E+00 -1.51973982E+01  7.59869910E+00
  7.59869910E+00 -1.51973982E+01  7.59869910E+00  7.59869910E+00 -1.51973982E+01
  7.59869910E+00  7.59869910E+00 -1.51973982E+01  7.59869910E+00  7.59869910E+00
 -1.51973982E+01  7.59869910E+00  7.59869910E+00 -1.51973982E+01  7.59869910E+00
  7.59869910E+00 -1.51973982E+01  7.59869910E+00  7.59869910E+00 -1.51973982E+01
  7.59869910E+00  7.59869910E+00 -1.51973982E+01  7.59869910E+00  7.59869910E+00
 -1.51973982E+01  7.59869910E+00  7.59869910E+00 -1.51973982E+01  7.59869910E+00
  7.59869910E+00 -1.51973982E+01  7.59869910E+00  7.59869910E+00 -1.51973982E+01
  7.59869910E+00  7.59869910E+00 -1.51973982E+01  7.59869910E+00  7.59869910E+00
 -1.51973982E+01  7.59869910E+00  7.59869910E+00 -1.51973982E+01  7.59869910E+00
  7.59869910E+00 -1.51973982E+01  7.59869910E+00  7.59869910E+00 -1.51973982E+01
  7.59869910E+00  7.59869910E+00 -1.51973982E+01  7.59869910E+00  7.59869910E+00
 -1.51973982E+01  7.59869910E+00  7.59869910E+00 -1.51973982E+01  7.59869910E+00
  7.59869910E+00 -1.51973982E+01  7.59869910E+00  7.59869910E+00 -1.51973982E+01
  7.59869910E+00  7.59869910E+00 -1.51973982E+01  7.59869910E+00  7.59869910E+00
 -1.51973982E+01  7.59869910E+00  7.59869910E+00 -1.51973982E+01  7.59869910E+00
  7.59869910E+00 -1.51973982E+01  7.59869910E+00  7.59869910E+00 -1.51973982E+01
  7.59869910E+00  7.59869910E+00 -1.51973982E+01  7.59869910E+00  7.59869910E+00
 -1.51973982E+01  7.59869910E+00  7.59869910E+00 -1.51973982E+01  7.59869910E+00
  7.59869910E+00 -1.51973982E+01  7.59869910E+00  7.59869910E+00 -1.51973982E+01
  7.59869910E+00  7.59869910E+00 -1.51973982E+01  7.59869910E+00  7.59869910E+00
 -1.51973982E+01  7.59869910E+00  7.59869910E+00 -1.51973982E+01  7.59869910E+00
  7.59869910E+00 -1.51973982E+01  7.59869910E+00  7.59869910E+00 -1.51973982E+01
  7.59869910E+00  7.59869910E+00 -1.51973982E+01  7.59869910E+00  7.59869910E+00
 -1.51973982E+01  7.59869910E+00  7.59869910E+00 -1.51973982E+01  7.59869910E+00
  7.59869910E+00 -1.51973982E+01  7.59869910E+00  7.59869910E+00 -1.51973982E+01
  7.59869910E+00  7.59869910E+00 -1.51973982E+01  7.59869910E+00  7.59869910E+00
 -1.51973982E+01  7.59869910E+00  7.59869910E+00 -1.51973982E+01  7.59869910E+00
  7.59869910E+00 -1.51973982E+01  7.59869910E+00  7.59869910E+00 -1.51973982E+01
  7.59869910E+00  7.59869910E+00 -1.51973982E+01  7.59869910E+00  7.59869910E+00
 -1.51973982E+01  7.59869910E+00  7.59869910E+00 -1.51973982E+01  7.59869910E+00
  7.59869910E+00 -1.51973982E+01  7.59869910E+00  7.59869910E+00 -1.51973982E+01
  7.59869910E+00  7.59869910E+00 -1.51973982E+01  7.59869910E+00  7.59869910E+00
 -1.51973982E+01  7.59869910E+00  7.59869910E+00 -1.51973982E+01  7.59869910E+00
  7.59869910E+00 -1.51973982E+01  7.59869910E+00  7.59869910E+00 -1.51973982E+01
  7.59869910E+00  7.59869910E+00 -1.51973982E+01  7.59869910E+00  7.59869910E+00
 -1.51973982E+01  7.59869910E+00  7.59869910E+00 -1.51973982E+01  7.59869910E+00
  7.59869910E+00 -1.51973982E+01  7.59869910E+00  7.59869910E+00 -1.51973982E+01
  7.59869910E+00  7.59869910E+00 -1.51973982E+01  7.59869910E+00  7.59869910E+00
 -1.51973982E+01  7.59869910E+00  7.59869910E+00 -1.51973982E+01  7.59869910E+00
  7.59869910E+00 -1.51973982E+01  7.59869910E+00  7.59869910E+00 -1.51973982E+01
  7.59869910E+00  7.59869910E+00 -1.51973982E+01  7.59869910E+00  7.59869910E+00
 -1.51973982E+01  7.59869910E+00  7.59869910E+00 -1.51973982E+01  7.59869910E+00
  7.59869910E+00 -1.51973982E+01  7.59869910E+00  7.59869910E+00 -1.51973982E+01
  7.59869910E+00  7.59869910E+00 -1.51973982E+01  7.59869910E+00  7.59869910E+00
 -1.51973982E+01  7.59869910E+00  7.59869910E+00 -1.51973982E+01  7.59869910E+00
  7.59869910E+00 -1.51973982E+01  7.59869910E+00  7.59869910E+00 -1.51973982E+01
  7.59869910E+00  7.59869910E+00 -1.51973982E+01  7.59869910E+00  7.59869910E+00
 -1.51973982E+01  7.59869910E+00  7.59869910E+00 -1.51973982E+01  7.59869910E+00
  7.59869910E+00 -1.51973982E+01  7.59869910E+00  7.59869910E+00 -1.51973982E+01
  7.59869910E+00  7.59869910E+00 -1.51973982E+01  7.59869910E+00  7.59869910E+00
 -1.51973982E+01  7.59869910E+00  7.59869910E+00 -1.51973982E+01  7.59869910E+00
  7.59869910E+00 -1.51973982E+01  7.59869910E+00  7.59869910E+00 -1.51973982E+01
  7.59869910E+00  7.59869910E+00 -1.51973982E+01  7.59869910E+00  7.59869910E+00
 -1.51973982E+01  7.59869910E+00  7.59869910E+00 -1.51973982E+01  7.59869910E+00
  7.59869910E+00 -1.51973982E+01  7.59869910E+00  7.59869910E+00 -1.51973982E+01
  7.59869910E+00  7.59869910E+00 -1.51973982E+01  7.59869910E+00  7.59869910E+00
 -1.51973982E+01  7.59869910E+00  7.59869910E+00 -1.51973982E+01  7.59869910E+00
  7.59869910E+00 -1.51973982E+01  7.59869910E+00  7.59869910E+00 -1.51973982E+01
  7.59869910E+00  7.59869910E+00 -1.51973982E+01  7.59869910E+00  7.59869910E+00
 -1.51973982E+01  7.59869910E+00  7.59869910E+00 -1.51973982E+01  7.59869910E+00
  7.59869910E+00 -1.51973982E+01  7.59869910E+00  7.59869910E+00 -1.51973982E+01
  7.59869910E+00  7.59869910E+00 -1.51973982E+01  7.59869910E+00  7.59869910E+00
 -1.51973982E+01  7.59869910E+00  7.59869910E+00 -1.51973982E+01  7.59869910E+00
  7.59869910E+00 -1.51973982E+01  7.59869910E+00  7.59869910E+00 -1.51973982E+01
  7.59869910E+00  7.59869910E+00 -1.51973982E+01  7.59869910E+00  7.59869910E+00
 -1.51973982E+01  7.59869910E+00  7.59869910E+00 -1.51973982E+01  7.59869910E+00
  7.59869910E+00 -1.51973982E+01  7.59869910E+00  7.59869910E+00 -1.51973982E+01
  7.59869910E+00  7.59869910E+00 -1.51973982E+01  7.59869910E+00  7.59869910E+00
 -1.51973982E+01  7.59869910E+00  7.59869910E+00 -1.51973982E+01  7.59869910E+00
  7.59869910E+00 -1.51973982E+01  7.59869910E+00  7.59869910E+00 -1.51973982E+01
  7.59869910E+00  7.59869910E+00 -1.51973982E+01  7.59869910E+00  7.59869910E+00
 -1.51973982E+01  7.59869910E+00  7.59869910E+00 -1.51973982E+01  7.59869910E+00
  7.59869910E+00 -1.51973982E+01  7.59869910E+00  7.59869910E+00 -1.51973982E+01
  7.59869910E+00  7.59869910E+00 -1.51973982E+01  7.59869910E+00  7.59869910E+00
 -1.51973982E+01  7.59869910E+00  7.59869910E+00 -1.51973982E+01  7.59869910E+00
  7.59869910E+00 -1.51973982E+01  7.59869910E+00  7.59869910E+00 -1.51973982E+01
  7.59869910E+00  7.59869910E+00 -1.51973982E+01  7.59869910E+00  7.59869910E+00
 -1.51973982E+01  7.59869910E+00  7.59869910E+00 -1.51973982E+01  7.59869910E+00
  7.59869910E+00 -1.51973982E+01  7.59869910E+00  7.59869910E+00 -1.51973982E+01
  7.59869910E+00  7.59869910E+00 -1.51973982E+01  7.59869910E+00  7.59869910E+00
 -1.51973982E+01  7.59869910E+00  7.59869910E+00 -1.51973982E+01  7.59869910E+00
  7.59869910E+00 -1.51973982E+01  7.59869910E+00  7.59869910E+00 -1.51973982E+01
  7.59869910E+00  7.59869910E+00 -1.51973982E+01  7.59869910E+00  7.59869910E+00
 -1.51973982E+01  7.59869910E+00  7.59869910E+00 -1.51973982E+01  7.59869910E+00
  7.59869910E+00 -1.51973982E+01  7.59869910E+00  7.59869910E+00 -1.51973982E+01
  7.59869910E+00  7.59869910E+00 -1.51973982E+01  7.59869910E+00  7.59869910E+00
 -1.51973982E+01  7.59869910E+00  7.59869910E+00 -1.51973982E+01  7.59869910E+00
  7.59869910E+00 -1.51973982E+01  7.59869910E+00  7.59869910E+00 -1.51973982E+01
  7.59869910E+00  7.59869910E+00 -1.51973982E+01  7.59869910E+00  7.59869910E+00
 -1.51973982E+01  7.59869910E+00  7.59869910E+00 -1.51973982E+01  7.59869910E+00
  7.59869910E+00 -1.51973982E+01  7.59869910E+00  7.59869910E+00 -1.51973982E+01
  7.59869910E+00  7.59869910E+00 -1.51973982E+01  7.59869910E+00  7.59869910E+00
 -1.51973982E+01  7.59869910E+00  7.59869910E+00 -1.51973982E+01  7.59869910E+00
  7.59869910E+00 -1.51973982E+01  7.59869910E+00  7.59869910E+00 -1.51973982E+01
  7.59869910E+00  7.59869910E+00 -1.51973982E+01  7.59869910E+00  7.59869910E+00
 -1.51973982E+01  7.59869910E+00  7.59869910E+00 -1.51973982E+01  7.59869910E+00
  7.59869910E+00 -1.51973982E+01  7.59869910E+00  7.59869910E+00 -1.51973982E+01
  7.59869910E+00  7.59869910E+00 -1.51973982E+01  7.59869910E+00  7.59869910E+00
 -1.51973982E+01  7.59869910E+00  7.59869910E+00 -1.51973982E+01  7.59869910E+00
  7.59869910E+00 -1.51973982E+01  7.59869910E+00  7.59869910E+00 -1.51973982E+01
  7.59869910E+00  7.59869910E+00 -1.51973982E+01  7.59869910E+00  7.59869910E+00
 -1.51973982E+01  7.59869910E+00  7.59869910E+00 -1.51973982E+01  7.59869910E+00
  7.59869910E+00 -1.51973982E+01  7.59869910E+00  7.59869910E+00 -1.51973982E+01
  7.59869910E+00  7.59869910E+00 -1.51973982E+01  7.59869910E+00  7.59869910E+00
 -1.51973982E+01  7.59869910E+00  7.59869910E+00 -1.51973982E+01  7.59869910E+00
  7.59869910E+00 -1.51973982E+01  7.59869910E+00  7.59869910E+00 -1.51973982E+01
  7.59869910E+00  7.59869910E+00 -1.51973982E+01  7.59869910E+00  7.59869910E+00
 -1.51973982E+01  7.59869910E+00  7.59869910E+00 -1.51973982E+01  7.59869910E+00
  7.59869910E+00 -1.51973982E+01  7.59869910E+00  7.59869910E+00 -1.51973982E+01
  7.59869910E+00  7.59869910E+00 -1.51973982E+01  7.59869910E+00  7.59869910E+00
 -1.51973982E+01  7.59869910E+00  7.59869910E+00 -1.51973982E+01  7.59869910E+00
  7.59869910E+00 -1.51973982E+01  7.59869910E+00  7.59869910E+00 -1.51973982E+01
  7.59869910E+00  7.59869910E+00 -1.51973982E+01  7.59869910E+00  7.59869910E+00
 -1.51973982E+01  7.59869910E+00  7.59869910E+00 -1.51973982E+01  7.59869910E+00
  7.59869910E+00 -1.51973982E+01  7.59869910E+00  7.59869910E+00 -1.51973982E+01
  7.59869910E+00  7.59869910E+00 -1.51973982E+01  7.59869910E+00  7.59869910E+00
 -1.51973982E+01  7.59869910E+00  7.59869910E+00 -1.51973982E+01  7.59869910E+00
  7.59869910E+00 -1.51973982E+01  7.59869910E+00  7.59869910E+00 -1.51973982E+01
  7.59869910E+00  7.59869910E+00 -1.51973982E+01  7.59869910E+00  7.59869910E+00
 -1.51973982E+01  7.59869910E+00  7.59869910E+00 -1.51973982E+01  7.59869910E+00
  7.59869910E+00 -1.51973982E+01  7.59869910E+00  7.59869910E+00 -1.51973982E+01
  7.59869910E+00  7.59869910E+00 -1.51973982E+01  7.59869910E+00  7.59869910E+00
 -1.51973982E+01  7.59869910E+00  7.59869910E+00 -1.51973982E+01  7.59869910E+00
  7.59869910E+00 -1.51973982E+01  7.59869910E+00  7.59869910E+00 -1.51973982E+01
  7.59869910E+00  7.59869910E+00 -1.51973982E+01  7.59869910E+00  7.59869910E+00
 -1.51973982E+01  7.59869910E+00  7.59869910E+00 -1.51973982E+01  7.59869910E+00
  7.59869910E+00 -1.51973982E+01  7.59869910E+00  7.59869910E+00 -1.51973982E+01
  7.59869910E+00  7.59869910E+00 -1.51973982E+01  7.59869910E+00  7.59869910E+00
 -1.51973982E+01  7.59869910E+00  7.59869910E+00 -1.51973982E+01  7.59869910E+00
  7.59869910E+00 -1.51973982E+01  7.59869910E+00  7.59869910E+00 -1.51973982E+01
  7.59869910E+00  7.59869910E+00 -1.51973982E+01  7.59869910E+00  7.59869910E+00
 -1.51973982E+01  7.59869910E+00  7.59869910E+00 -1.51973982E+01  7.59869910E+00
  7.59869910E+00 -1.51973982E+01  7.59869910E+00  7.59869910E+00 -1.51973982E+01
  7.59869910E+00  7.59869910E+00 -1.51973982E+01  7.59869910E+00  7.59869910E+00
 -1.51973982E+01  7.59869910E+00  7.59869910E+00 -1.51973982E+01  7.59869910E+00
  7.59869910E+00 -1.51973982E+01  7.59869910E+00  7.59869910E+00 -1.51973982E+01
  7.59869910E+00  7.59869910E+00 -1.51973982E+01  7.59869910E+00  7.59869910E+00
 -1.51973982E+01  7.59869910E+00  7.59869910E+00 -1.51973982E+01  7.59869910E+00
  7.59869910E+00 -1.51973982E+01  7.59869910E+00  7.59869910E+00 -1.51973982E+01
  7.59869910E+00  7.59869910E+00 -1.51973982E+01  7.59869910E+00  7.59869910E+00
 -1.51973982E+01  7.59869910E+00  7.59869910E+00 -1.51973982E+01  7.59869910E+00
  7.59869910E+00 -1.51973982E+01  7.59869910E+00  7.59869910E+00 -1.51973982E+01
  7.59869910E+00  7.59869910E+00 -1.51973982E+01  7.59869910E+00  7.59869910E+00
 -1.51973982E+01  7.59869910E+00  7.59869910E+00 -1.51973982E+01  7.59869910E+00
  7.59869910E+00 -1.51973982E+01  7.59869910E+00  7.59869910E+00 -1.51973982E+01
  7.59869910E+00  7.59869910E+00 -1.51973982E+01  7.59869910E+00  7.59869910E+00
 -1.51973982E+01  7.59869910E+00  7.59869910E+00 -1.51973982E+01  7.59869910E+00
  7.59869910E+00 -1.51973982E+01  7.59869910E+00  7.59869910E+00 -1.51973982E+01
  7.59869910E+00  7.59869910E+00 -1.51973982E+01  7.59869910E+00  7.59869910E+00
 -1.51973982E+01  7.59869910E+00  7.59869910E+00 -1.51973982E+01  7.59869910E+00
  7.59869910E+00 -1.51973982E+01  7.59869910E+00  7.59869910E+00 -1.51973982E+01
  7.59869910E+00  7.59869910E+00 -1.51973982E+01  7.59869910E+00  7.59869910E+00
 -1.51973982E+01  7.59869910E+00  7.59869910E+00 -1.51973982E+01  7.59869910E+00
  7.59869910E+00 -1.51973982E+01  7.59869910E+00  7.59869910E+00 -1.51973982E+01
  7.59869910E+00  7.59869910E+00 -1.51973982E+01  7.59869910E+00  7.59869910E+00
 -1.51973982E+01  7.59869910E+00  7.59869910E+00 -1.51973982E+01  7.59869910E+00
  7.59869910E+00 -1.51973982E+01  7.59869910E+00  7.59869910E+00 -1.51973982E+01
  7.59869910E+00  7.59869910E+00 -1.51973982E+01  7.59869910E+00  7.59869910E+00
 -1.51973982E+01  7.59869910E+00  7.59869910E+00 -1.51973982E+01  7.59869910E+00
  7.59869910E+00 -1.51973982E+01  7.59869910E+00  7.59869910E+00 -1.51973982E+01
  7.59869910E+00  7.59869910E+00 -1.51973982E+01  7.59869910E+00  7.59869910E+00
 -1.51973982E+01  7.59869910E+00  7.59869910E+00 -1.51973982E+01  7.59869910E+00
  7.59869910E+00 -1.51973982E+01  7.59869910E+00  7.59869910E+00 -1.51973982E+01
  7.59869910E+00  7.59869910E+00 -1.51973982E+01  7.59869910E+00  7.59869910E+00
 -1.51973982E+01  7.59869910E+00  7.59869910E+00 -1.51973982E+01  7.59869910E+00
  7.59869910E+00 -1.51973982E+01  7.59869910E+00  7.59869910E+00 -1.51973982E+01
  7.59869910E+00  7.59869910E+00 -1.51973982E+01  7.59869910E+00  7.59869910E+00
 -1.51973982E+01  7.59869910E+00  7.59869910E+00 -1.51973982E+01  7.59869910E+00
  7.59869910E+00 -1.51973982E+01  7.59869910E+00  7.59869910E+00 -1.51973982E+01
  7.59869910E+00  7.59869910E+00 -1.51973982E+01  7.59869910E+00  7.59869910E+00
 -1.51973982E+01  7.59869910E+00  7.59869910E+00 -1.51973982E+01  7.59869910E+00
  7.59869910E+00 -1.51973982E+01  7.59869910E+00  7.59869910E+00 -1.51973982E+01
  7.59869910E+00  7.59869910E+00 -1.51973982E+01  7.59869910E+00  7.59869910E+00
 -1.51973982E+01  7.59869910E+00  7.59869910E+00 -1.51973982E+01  7.59869910E+00
  7.59869910E+00 -1.51973982E+01  7.59869910E+00  7.59869910E+00 -1.51973982E+01
  7.59869910E+00  7.59869910E+00 -1.51973982E+01  7.59869910E+00  7.59869910E+00
 -1.51973982E+01  7.59869910E+00  7.59869910E+00 -1.51973982E+01  7.59869910E+00
  7.59869910E+00 -1.51973982E+01  7.59869910E+00  7.59869910E+00 -1.51973982E+01
  7.59869910E+00  7.59869910E+00 -1.51973982E+01  7.59869910E+00  7.59869910E+00
 -1.51973982E+01  7.59869910E+00  7.59869910E+00 -1.51973982E+01  7.59869910E+00
  7.59869910E+00 -1.51973982E+01  7.59869910E+00  7.59869910E+00 -1.51973982E+01
  7.59869910E+00  7.59869910E+00 -1.51973982E+01  7.59869910E+00  7.59869910E+00
 -1.51973982E+01  7.59869910E+00  7.59869910E+00 -1.51973982E+01  7.59869910E+00
  7.59869910E+00 -1.51973982E+01  7.59869910E+00  7.59869910E+00 -1.51973982E+01
  7.59869910E+00  7.59869910E+00 -1.51973982E+01  7.59869910E+00  7.59869910E+00
 -1.51973982E+01  7.59869910E+00  7.59869910E+00 -1.51973982E+01  7.59869910E+00
  7.59869910E+00 -1.51973982E+01  7.59869910E+00  7.59869910E+00 -1.51973982E+01
  7.59869910E+00  7.59869910E+00 -1.51973982E+01  7.59869910E+00  7.59869910E+00
 -1.51973982E+01  7.59869910E+00  7.59869910E+00 -1.51973982E+01  7.59869910E+00
  7.59869910E+00 -1.51973982E+01  7.59869910E+00  7.59869910E+00 -1.51973982E+01
  7.59869910E+00  7.59869910E+00 -1.51973982E+01  7.59869910E+00  7.59869910E+00
 -1.51973982E+01  7.59869910E+00  7.59869910E+00 -1.51973982E+01  7.59869910E+00
  7.59869910E+00 -1.51973982E+01  7.59869910E+00  7.59869910E+00 -1.51973982E+01
  7.59869910E+00  7.59869910E+00 -1.51973982E+01  7.59869910E+00  7.59869910E+00
 -1.51973982E+01  7.59869910E+00  7.59869910E+00 -1.51973982E+01  7.59869910E+00
  7.59869910E+00 -1.51973982E+01  7.59869910E+00  7.59869910E+00 -1.51973982E+01
  7.59869910E+00  7.59869910E+00 -1.51973982E+01  7.59869910E+00  7.59869910E+00
 -1.51973982E+01  7.59869910E+00  7.59869910E+00 -1.51973982E+01  7.59869910E+00
  7.59869910E+00 -1.51973982E+01  7.59869910E+00  7.59869910E+00 -1.51973982E+01
  7.59869910E+00  7.59869910E+00 -1.51973982E+01  7.59869910E+00  7.59869910E+00
 -1.51973982E+01  7.59869910E+00  7.59869910E+00 -1.51973982E+01  7.59869910E+00
  7.59869910E+00 -1.51973982E+01  7.59869910E+00  7.59869910E+00 -1.51973982E+01
  7.59869910E+00  7.59869910E+00 -1.51973982E+01  7.59869910E+00  7.59869910E+00
 -1.51973982E+01  7.59869910E+00  7.59869910E+00 -1.51973982E+01  7.59869910E+00
  7.59869910E+00 -1.51973982E+01  7.59869910E+00  7.59869910E+00 -1.51973982E+01
  7.59869910E+00  7.59869910E+00 -1.51973982E+01  7.59869910E+00  7.59869910E+00
 -1.51973982E+01  7.59869910E+00  7.59869910E+00 -1.51973982E+01  7.59869910E+00
  7.59869910E+00 -1.51973982E+01  7.59869910E+00  7.59869910E+00 -1.51973982E+01
  7.59869910E+00  7.59869910E+00 -1.51973982E+01  7.59869910E+00  7.59869910E+00
 -1.51973982E+01  7.59869910E+00  7.59869910E+00 -1.51973982E+01  7.59869910E+00
  7.59869910E+00 -1.51973982E+01  7.59869910E+00  7.59869910E+00 -1.51973982E+01
  7.59869910E+00  7.59869910E+00 -1.51973982E+01  7.59869910E+00  7.59869910E+00
 -1.51973982E+01  7.59869910E+00  7.59869910E+00 -1.51973982E+01  7.59869910E+00
  7.59869910E+00 -1.51973982E+01  7.59869910E+00  7.59869910E+00 -1.51973982E+01
  7.59869910E+00  7.59869910E+00 -1.51973982E+01  7.59869910E+00  7.59869910E+00
 -1.51973982E+01  7.59869910E+00  7.59869910E+00 -1.51973982E+01  7.59869910E+00
  7.59869910E+00 -1.51973982E+01  7.59869910E+00  7.59869910E+00 -1.51973982E+01
  7.59869910E+00  7.59869910E+00 -1.51973982E+01  7.59869910E+00  7.59869910E+00
 -1.51973982E+01  7.59869910E+00  7.59869910E+00 -1.51973982E+01  7.59869910E+00
  7.59869910E+00 -1.51973982E+01  7.59869910E+00  7.59869910E+00 -1.51973982E+01
  7.59869910E+00  7.59869910E+00 -1.51973982E+01  7.59869910E+00  7.59869910E+00
 -1.51973982E+01  7.59869910E+00  7.59869910E+00 -1.51973982E+01  7.59869910E+00
  7.59869910E+00 -1.51973982E+01  7.59869910E+00  7.59869910E+00 -1.51973982E+01
  7.59869910E+00  7.59869910E+00 -1.51973982E+01  7.59869910E+00  7.59869910E+00
 -1.51973982E+01  7.59869910E+00  7.59869910E+00 -1.51973982E+01  7.59869910E+00
  7.59869910E+00 -1.51973982E+01  7.59869910E+00  7.59869910E+00 -1.51973982E+01
  7.59869910E+00  7.59869910E+00 -1.51973982E+01  7.59869910E+00  7.59869910E+00
 -1.51973982E+01  7.59869910E+00  7.59869910E+00 -1.51973982E+01  7.59869910E+00
  7.59869910E+00 -1.51973982E+01  7.59869910E+00  7.59869910E+00 -1.51973982E+01
  7.59869910E+00  7.59869910E+00 -1.51973982E+01  7.59869910E+00  7.59869910E+00
 -1.51973982E+01  7.59869910E+00  7.59869910E+00 -1.51973982E+01  7.59869910E+00
  7.59869910E+00 -1.51973982E+01  7.59869910E+00  7.59869910E+00 -1.51973982E+01
  7.59869910E+00  7.59869910E+00 -1.51973982E+01  7.59869910E+00  7.59869910E+00
 -1.51973982E+01  7.59869910E+00  7.59869910E+00 -1.51973982E+01  7.59869910E+00
  7.59869910E+00 -1.51973982E+01  7.59869910E+00  7.59869910E+00 -1.51973982E+01
  7.59869910E+00  7.59869910E+00 -1.51973982E+01  7.59869910E+00  7.59869910E+00
 -1.51973982E+01  7.59869910E+00  7.59869910E+00 -1.51973982E+01  7.59869910E+00
  7.59869910E+00 -1.51973982E+01  7.59869910E+00  7.59869910E+00 -1.51973982E+01
  7.59869910E+00  7.59869910E+00 -1.51973982E+01  7.59869910E+00  7.59869910E+00
 -1.51973982E+01  7.59869910E+00  7.59869910E+00 -1.51973982E+01  7.59869910E+00
  7.59869910E+00 -1.51973982E+01  7.59869910E+00  7.59869910E+00 -1.51973982E+01
  7.59869910E+00  7.59869910E+00 -1.51973982E+01  7.59869910E+00  7.59869910E+00
 -1.51973982E+01  7.59869910E+00  7.59869910E+00 -1.51973982E+01  7.59869910E+00
  7.59869910E+00 -1.51973982E+01  7.59869910E+00  7.59869910E+00 -1.51973982E+01
  7.59869910E+00  7.59869910E+00 -1.51973982E+01  7.59869910E+00  7.59869910E+00
 -1.51973982E+01  7.59869910E+00  7.59869910E+00 -1.51973982E+01  7.59869910E+00
  7.59869910E+00 -1.51973982E+01  7.59869910E+00  7.59869910E+00 -1.51973982E+01
  7.59869910E+00  7.59869910E+00 -1.51973982E+01  7.59869910E+00  7.59869910E+00
 -1.51973982E+01  7.59869910E+00  7.59869910E+00 -1.51973982E+01  7.59869910E+00
  7.59869910E+00 -1.51973982E+01  7.59869910E+00  7.59869910E+00 -1.51973982E+01
  7.59869910E+00  7.59869910E+00 -1.51973982E+01  7.59869910E+00  7.59869910E+00
 -1.51973982E+01  7.59869910E+00  7.59869910E+00 -1.51973982E+01  7.59869910E+00
  7.59869910E+00 -1.51973982E+01  7.59869910E+00  7.59869910E+00 -1.51973982E+01
  7.59869910E+00  7.59869910E+00 -1.51973982E+01  7.59869910E+00  7.59869910E+00
 -1.51973982E+01  7.59869910E+00  7.59869910E+00 -1.51973982E+01  7.59869910E+00
  7.59869910E+00 -1.51973982E+01  7.59869910E+00  7.59869910E+00 -1.51973982E+01
  7.59869910E+00  7.59869910E+00 -1.51973982E+01  7.59869910E+00  7.59869910E+00
 -1.51973982E+01  7.59869910E+00  7.59869910E+00 -1.51973982E+01  7.59869910E+00
  7.59869910E+00 -1.51973982E+01  7.59869910E+00  7.59869910E+00 -1.51973982E+01
  7.59869910E+00  7.59869910E+00 -1.51973982E+01  7.59869910E+00  7.59869910E+00
 -1.51973982E+01  7.59869910E+00  7.59869910E+00 -1.51973982E+01  7.59869910E+00
  7.59869910E+00 -1.51973982E+01  7.59869910E+00  7.59869910E+00 -1.51973982E+01
  7.59869910E+00  7.59869910E+00 -1.51973982E+01  7.59869910E+00  7.59869910E+00
 -1.51973982E+01  7.59869910E+00  7.59869910E+00 -1.51973982E+01  7.59869910E+00
  7.59869910E+00 -1.51973982E+01  7.59869910E+00  7.59869910E+00 -1.51973982E+01
  7.59869910E+00  7.59869910E+00 -1.51973982E+01  7.59869910E+00  7.59869910E+00
 -1.51973982E+01  7.59869910E+00  7.59869910E+00 -1.51973982E+01  7.59869910E+00
  7.59869910E+00 -1.51973982E+01  7.59869910E+00  7.59869910E+00 -1.51973982E+01
  7.59869910E+00  7.59869910E+00 -1.51973982E+01  7.59869910E+00  7.59869910E+00
 -1.51973982E+01  7.59869910E+00  7.59869910E+00 -1.51973982E+01  7.59869910E+00
  7.59869910E+00 -1.51973982E+01  7.59869910E+00  7.59869910E+00 -1.51973982E+01
  7.59869910E+00  7.59869910E+00 -1.51973982E+01  7.59869910E+00  7.59869910E+00
 -1.51973982E+01  7.59869910E+00  7.59869910E+00 -1.51973982E+01  7.59869910E+00
  7.59869910E+00 -1.51973982E+01  7.59869910E+00  7.59869910E+00 -1.51973982E+01
  7.59869910E+00  7.59869910E+00 -1.51973982E+01  7.59869910E+00  7.59869910E+00
 -1.51973982E+01  7.59869910E+00  7.59869910E+00 -1.51973982E+01  7.59869910E+00
  7.59869910E+00 -1.51973982E+01  7.59869910E+00  7.59869910E+00 -1.51973982E+01
  7.59869910E+00  7.59869910E+00 -1.51973982E+01  7.59869910E+00  7.59869910E+00
 -1.51973982E+01  7.59869910E+00  7.59869910E+00 -1.51973982E+01  7.59869910E+00
  7.59869910E+00 -1.51973982E+01  7.59869910E+00  7.59869910E+00 -1.51973982E+01
  7.59869910E+00  7.59869910E+00 -1.51973982E+01  7.59869910E+00  7.59869910E+00
 -1.51973982E+01  7.59869910E+00  7.59869910E+00 -1.51973982E+01  7.59869910E+00
  7.59869910E+00 -1.51973982E+01  7.59869910E+00  7.59869910E+00 -1.51973982E+01
  7.59869910E+00  7.59869910E+00 -1.51973982E+01  7.59869910E+00  7.59869910E+00
 -1.51973982E+01  7.59869910E+00  7.59869910E+00 -1.51973982E+01  7.59869910E+00
  7.59869910E+00 -1.51973982E+01  7.59869910E+00  7.59869910E+00 -1.51973982E+01
  7.59869910E+00  7.59869910E+00 -1.51973982E+01  7.59869910E+00  7.59869910E+00
 -1.51973982E+01  7.59869910E+00  7.59869910E+00 -1.51973982E+01  7.59869910E+00
  7.59869910E+00 -1.51973982E+01  7.59869910E+00  7.59869910E+00 -1.51973982E+01
  7.59869910E+00  7.59869910E+00 -1.51973982E+01  7.59869910E+00  7.59869910E+00
 -1.51973982E+01  7.59869910E+00  7.59869910E+00 -1.51973982E+01  7.59869910E+00
  7.59869910E+00 -1.51973982E+01  7.59869910E+00  7.59869910E+00 -1.51973982E+01
  7.59869910E+00  7.59869910E+00 -1.51973982E+01  7.59869910E+00  7.59869910E+00
 -1.51973982E+01  7.59869910E+00  7.59869910E+00 -1.51973982E+01  7.59869910E+00
  7.59869910E+00 -1.51973982E+01  7.59869910E+00  7.59869910E+00 -1.51973982E+01
  7.59869910E+00  7.59869910E+00 -1.51973982E+01  7.59869910E+00  7.59869910E+00
 -1.51973982E+01  7.59869910E+00  7.59869910E+00 -1.51973982E+01  7.59869910E+00
  7.59869910E+00 -1.51973982E+01  7.59869910E+00  7.59869910E+00 -1.51973982E+01
  7.59869910E+00  7.59869910E+00 -1.51973982E+01  7.59869910E+00  7.59869910E+00
 -1.51973982E+01  7.59869910E+00  7.59869910E+00 -1.51973982E+01  7.59869910E+00
  7.59869910E+00 -1.51973982E+01  7.59869910E+00  7.59869910E+00 -1.51973982E+01
  7.59869910E+00  7.59869910E+00 -1.51973982E+01  7.59869910E+00  7.59869910E+00
 -1.51973982E+01  7.59869910E+00  7.59869910E+00 -1.51973982E+01  7.59869910E+00
  7.59869910E+00 -1.51973982E+01  7.59869910E+00  7.59869910E+00 -1.51973982E+01
  7.59869910E+00  7.59869910E+00 -1.51973982E+01  7.59869910E+00  7.59869910E+00
 -1.51973982E+01  7.59869910E+00  7.59869910E+00 -1.51973982E+01  7.59869910E+00
  7.59869910E+00 -1.51973982E+01  7.59869910E+00  7.59869910E+00 -1.51973982E+01
  7.59869910E+00  7.59869910E+00 -1.51973982E+01  7.59869910E+00  7.59869910E+00
 -1.51973982E+01  7.59869910E+00  7.59869910E+00 -1.51973982E+01  7.59869910E+00
  7.59869910E+00 -1.51973982E+01  7.59869910E+00  7.59869910E+00 -1.51973982E+01
  7.59869910E+00  7.59869910E+00 -1.51973982E+01  7.59869910E+00  7.59869910E+00
 -1.51973982E+01  7.59869910E+00  7.59869910E+00 -1.51973982E+01  7.59869910E+00
  7.59869910E+00 -1.51973982E+01  7.59869910E+00  7.59869910E+00 -1.51973982E+01
  7.59869910E+00  7.59869910E+00 -1.51973982E+01  7.59869910E+00  7.59869910E+00
 -1.51973982E+01  7.59869910E+00  7.59869910E+00 -1.51973982E+01  7.59869910E+00
  7.59869910E+00 -1.51973982E+01  7.59869910E+00  7.59869910E+00 -1.51973982E+01
  7.59869910E+00  7.59869910E+00 -1.51973982E+01  7.59869910E+00  7.59869910E+00
 -1.51973982E+01  7.59869910E+00  7.59869910E+00 -1.51973982E+01  7.59869910E+00
  7.59869910E+00 -1.51973982E+01  7.59869910E+00  7.59869910E+00 -1.51973982E+01
  7.59869910E+00  7.59869910E+00 -1.51973982E+01  7.59869910E+00  7.59869910E+00
 -1.51973982E+01  7.59869910E+00  7.59869910E+00 -1.51973982E+01  7.59869910E+00
  7.59869910E+00 -1.51973982E+01  7.59869910E+00  7.59869910E+00 -1.51973982E+01
  7.59869910E+00  7.59869910E+00 -1.51973982E+01  7.59869910E+00  7.59869910E+00
 -1.51973982E+01  7.59869910E+00  7.59869910E+00 -1.51973982E+01  7.59869910E+00
  7.59869910E+00 -1.51973982E+01  7.59869910E+00  7.59869910E+00 -1.51973982E+01
  7.59869910E+00  7.59869910E+00 -1.51973982E+01  7.59869910E+00  7.59869910E+00
 -1.51973982E+01  7.59869910E+00  7.59869910E+00 -1.51973982E+01  7.59869910E+00
  7.59869910E+00 -1.51973982E+01  7.59869910E+00  7.59869910E+00 -1.51973982E+01
  7.59869910E+00  7.59869910E+00 -1.51973982E+01  7.59869910E+00  7.59869910E+00
 -1.51973982E+01  7.59869910E+00  7.59869910E+00 -1.51973982E+01  7.59869910E+00
  7.59869910E+00 -1.51973982E+01  7.59869910E+00  7.59869910E+00 -1.51973982E+01
  7.59869910E+00  7.59869910E+00 -1.51973982E+01  7.59869910E+00  7.59869910E+00
 -1.51973982E+01  7.59869910E+00  7.59869910E+00 -1.51973982E+01  7.59869910E+00
  7.59869910E+00 -1.51973982E+01  7.59869910E+00  7.59869910E+00 -1.51973982E+01
  7.59869910E+00  7.59869910E+00 -1.51973982E+01  7.59869910E+00  7.59869910E+00
 -1.51973982E+01  7.59869910E+00  7.59869910E+00 -1.51973982E+01  7.59869910E+00
  7.59869910E+00 -1.51973982E+01  7.59869910E+00  7.59869910E+00 -1.51973982E+01
  7.59869910E+00  7.59869910E+00 -1.51973982E+01  7.59869910E+00  7.59869910E+00
 -1.51973982E+01  7.59869910E+00  7.59869910E+00 -1.51973982E+01  7.59869910E+00
  7.59869910E+00 -1.51973982E+01  7.59869910E+00  7.59869910E+00 -1.51973982E+01
  7.59869910E+00  7.59869910E+00 -1.51973982E+01  7.59869910E+00  7.59869910E+00
 -1.51973982E+01  7.59869910E+00  7.59869910E+00 -1.51973982E+01  7.59869910E+00
  7.59869910E+00 -1.51973982E+01  7.59869910E+00  7.59869910E+00 -1.51973982E+01
  7.59869910E+00  7.59869910E+00 -1.51973982E+01  7.59869910E+00  7.59869910E+00
 -1.51973982E+01  7.59869910E+00  7.59869910E+00 -1.51973982E+01  7.59869910E+00
  7.59869910E+00 -1.51973982E+01  7.59869910E+00  7.59869910E+00 -1.51973982E+01
  7.59869910E+00  7.59869910E+00 -1.51973982E+01  7.59869910E+00  7.59869910E+00
 -1.51973982E+01  7.59869910E+00  7.59869910E+00 -1.51973982E+01  7.59869910E+00
  7.59869910E+00 -1.51973982E+01  7.59869910E+00  7.59869910E+00 -1.51973982E+01
  7.59869910E+00  7.59869910E+00 -1.51973982E+01  7.59869910E+00  7.59869910E+00
 -1.51973982E+01  7.59869910E+00  7.59869910E+00 -1.51973982E+01  7.59869910E+00
  7.59869910E+00 -1.51973982E+01  7.59869910E+00  7.59869910E+00 -1.51973982E+01
  7.59869910E+00  7.59869910E+00 -1.51973982E+01  7.59869910E+00  7.59869910E+00
 -1.51973982E+01  7.59869910E+00  7.59869910E+00 -1.51973982E+01  7.59869910E+00
  7.59869910E+00 -1.51973982E+01  7.59869910E+00  7.59869910E+00 -1.51973982E+01
  7.59869910E+00  7.59869910E+00 -1.51973982E+01  7.59869910E+00  7.59869910E+00
 -1.51973982E+01  7.59869910E+00  7.59869910E+00 -1.51973982E+01  7.59869910E+00
  7.59869910E+00 -1.51973982E+01  7.59869910E+00  7.59869910E+00 -1.51973982E+01
  7.59869910E+00  7.59869910E+00 -1.51973982E+01  7.59869910E+00  7.59869910E+00
 -1.51973982E+01  7.59869910E+00  7.59869910E+00 -1.51973982E+01  7.59869910E+00
  7.59869910E+00 -1.51973982E+01  7.59869910E+00  7.59869910E+00 -1.51973982E+01
  7.59869910E+00  7.59869910E+00 -1.51973982E+01  7.59869910E+00  7.59869910E+00
 -1.51973982E+01  7.59869910E+00  7.59869910E+00 -1.51973982E+01  7.59869910E+00
  7.59869910E+00 -1.51973982E+01  7.59869910E+00  7.59869910E+00 -1.51973982E+01
  7.59869910E+00  7.59869910E+00 -1.51973982E+01  7.59869910E+00  7.59869910E+00
 -1.51973982E+01  7.59869910E+00  7.59869910E+00 -1.51973982E+01  7.59869910E+00
  7.59869910E+00 -1.51973982E+01  7.59869910E+00  7.59869910E+00 -1.51973982E+01
  7.59869910E+00  7.59869910E+00 -1.51973982E+01  7.59869910E+00  7.59869910E+00
 -1.51973982E+01  7.59869910E+00  7.59869910E+00 -1.51973982E+01  7.59869910E+00
  7.59869910E+00 -1.51973982E+01  7.59869910E+00  7.59869910E+00 -1.51973982E+01
  7.59869910E+00  7.59869910E+00 -1.51973982E+01  7.59869910E+00  7.59869910E+00
 -1.51973982E+01  7.59869910E+00  7.59869910E+00 -1.51973982E+01  7.59869910E+00
  7.59869910E+00 -1.51973982E+01  7.59869910E+00  7.59869910E+00 -1.51973982E+01
  7.59869910E+00  7.59869910E+00 -1.51973982E+01  7.59869910E+00  7.59869910E+00
 -1.51973982E+01  7.59869910E+00  7.59869910E+00 -1.51973982E+01  7.59869910E+00
  7.59869910E+00 -1.51973982E+01  7.59869910E+00  7.59869910E+00 -1.51973982E+01
  7.59869910E+00  7.59869910E+00 -1.51973982E+01  7.59869910E+00  7.59869910E+00
 -1.51973982E+01  7.59869910E+00  7.59869910E+00 -1.51973982E+01  7.59869910E+00
  7.59869910E+00 -1.51973982E+01  7.59869910E+00  7.59869910E+00 -1.51973982E+01
  7.59869910E+00  7.59869910E+00 -1.51973982E+01  7.59869910E+00  7.59869910E+00
 -1.51973982E+01  7.59869910E+00  7.59869910E+00 -1.51973982E+01  7.59869910E+00
  7.59869910E+00 -1.51973982E+01  7.59869910E+00  7.59869910E+00 -1.51973982E+01
  7.59869910E+00  7.59869910E+00 -1.51973982E+01  7.59869910E+00  7.59869910E+00
 -1.51973982E+01  7.59869910E+00  7.59869910E+00 -1.51973982E+01  7.59869910E+00
  7.59869910E+00 -1.51973982E+01  7.59869910E+00  7.59869910E+00 -1.51973982E+01
  7.59869910E+00  7.59869910E+00 -1.51973982E+01  7.59869910E+00  7.59869910E+00
 -1.51973982E+01  7.59869910E+00  7.59869910E+00 -1.51973982E+01  7.59869910E+00
  7.59869910E+00 -1.51973982E+01  7.59869910E+00  7.59869910E+00 -1.51973982E+01
  7.59869910E+00  7.59869910E+00 -1.51973982E+01  7.59869910E+00  7.59869910E+00
 -1.51973982E+01  7.59869910E+00  7.59869910E+00 -1.51973982E+01  7.59869910E+00
  7.59869910E+00 -1.51973982E+01  7.59869910E+00  7.59869910E+00 -1.51973982E+01
  7.59869910E+00  7.59869910E+00 -1.51973982E+01  7.59869910E+00  7.59869910E+00
 -1.51973982E+01  7.59869910E+00  7.59869910E+00 -1.51973982E+01  7.59869910E+00
  7.59869910E+00 -1.51973982E+01  7.59869910E+00  7.59869910E+00 -1.51973982E+01
  7.59869910E+00  7.59869910E+00 -1.51973982E+01  7.59869910E+00  7.59869910E+00
 -1.51973982E+01  7.59869910E+00  7.59869910E+00 -1.51973982E+01  7.59869910E+00
  7.59869910E+00 -1.51973982E+01  7.59869910E+00  7.59869910E+00 -1.51973982E+01
  7.59869910E+00  7.59869910E+00 -1.51973982E+01  7.59869910E+00  7.59869910E+00
 -1.51973982E+01  7.59869910E+00  7.59869910E+00 -1.51973982E+01  7.59869910E+00
  7.59869910E+00 -1.51973982E+01  7.59869910E+00  7.59869910E+00 -1.51973982E+01
  7.59869910E+00  7.59869910E+00 -1.51973982E+01  7.59869910E+00  7.59869910E+00
 -1.51973982E+01  7.59869910E+00  7.59869910E+00 -1.51973982E+01  7.59869910E+00
  7.59869910E+00 -1.51973982E+01  7.59869910E+00  7.59869910E+00 -1.51973982E+01
  7.59869910E+00  7.59869910E+00 -1.51973982E+01  7.59869910E+00  7.59869910E+00
 -1.51973982E+01  7.59869910E+00  7.59869910E+00 -1.51973982E+01  7.59869910E+00
  7.59869910E+00 -1.51973982E+01  7.59869910E+00  7.59869910E+00 -1.51973982E+01
  7.59869910E+00  7.59869910E+00 -1.51973982E+01  7.59869910E+00  7.59869910E+00
 -1.51973982E+01  7.59869910E+00  7.59869910E+00 -1.51973982E+01  7.59869910E+00
  7.59869910E+00 -1.51973982E+01  7.59869910E+00  7.59869910E+00 -1.51973982E+01
  7.59869910E+00  7.59869910E+00 -1.51973982E+01  7.59869910E+00  7.59869910E+00
 -1.51973982E+01  7.59869910E+00  7.59869910E+00 -1.51973982E+01  7.59869910E+00
  7.59869910E+00 -1.51973982E+01  7.59869910E+00  7.59869910E+00 -1.51973982E+01
  7.59869910E+00  7.59869910E+00 -1.51973982E+01  7.59869910E+00  7.59869910E+00
 -1.51973982E+01  7.59869910E+00  7.59869910E+00 -1.51973982E+01  7.59869910E+00
  7.59869910E+00 -1.51973982E+01  7.59869910E+00  7.59869910E+00 -1.51973982E+01
  7.59869910E+00  7.59869910E+00 -1.51973982E+01  7.59869910E+00  7.59869910E+00
 -1.51973982E+01  7.59869910E+00  7.59869910E+00 -1.51973982E+01  7.59869910E+00
  7.59869910E+00 -1.51973982E+01  7.59869910E+00  7.59869910E+00 -1.51973982E+01
  7.59869910E+00  7.59869910E+00 -1.51973982E+01  7.59869910E+00  7.59869910E+00
 -1.51973982E+01  7.59869910E+00  7.59869910E+00 -1.51973982E+01  7.59869910E+00
  7.59869910E+00 -1.51973982E+01  7.59869910E+00  7.59869910E+00 -1.51973982E+01
  7.59869910E+00  7.59869910E+00 -1.51973982E+01  7.59869910E+00  7.59869910E+00
 -1.51973982E+01  7.59869910E+00  7.59869910E+00 -1.51973982E+01  7.59869910E+00
  7.59869910E+00 -1.51973982E+01  7.59869910E+00  7.59869910E+00 -1.51973982E+01
  7.59869910E+00  7.59869910E+00 -1.51973982E+01  7.59869910E+00  7.59869910E+00
 -1.51973982E+01  7.59869910E+00  7.59869910E+00 -1.51973982E+01  7.59869910E+00
  7.59869910E+00 -1.51973982E+01  7.59869910E+00  7.59869910E+00 -1.51973982E+01
  7.59869910E+00  7.59869910E+00 -1.51973982E+01  7.59869910E+00  7.59869910E+00
 -1.51973982E+01  7.59869910E+00  7.59869910E+00 -1.51973982E+01  7.59869910E+00
  7.59869910E+00 -1.51973982E+01  7.59869910E+00  7.59869910E+00 -1.51973982E+01
  7.59869910E+00  7.59869910E+00 -1.51973982E+01  7.59869910E+00  7.59869910E+00
 -1.51973982E+01  7.59869910E+00  7.59869910E+00 -1.51973982E+01  7.59869910E+00
  7.59869910E+00 -1.51973982E+01  7.59869910E+00  7.59869910E+00 -1.51973982E+01
  7.59869910E+00  7.59869910E+00 -1.51973982E+01  7.59869910E+00  7.59869910E+00
 -1.51973982E+01  7.59869910E+00  7.59869910E+00 -1.51973982E+01  7.59869910E+00
  7.59869910E+00 -1.51973982E+01  7.59869910E+00  7.59869910E+00 -1.51973982E+01
  7.59869910E+00  7.59869910E+00 -1.51973982E+01  7.59869910E+00  7.59869910E+00
 -1.51973982E+01  7.59869910E+00  7.59869910E+00 -1.51973982E+01  7.59869910E+00
  7.59869910E+00 -1.51973982E+01  7.59869910E+00  7.59869910E+00 -1.51973982E+01
  7.59869910E+00  7.59869910E+00 -1.51973982E+01  7.59869910E+00  7.59869910E+00
 -1.51973982E+01  7.59869910E+00  7.59869910E+00 -1.51973982E+01  7.59869910E+00
  7.59869910E+00 -1.51973982E+01  7.59869910E+00  7.59869910E+00 -1.51973982E+01
  7.59869910E+00  7.59869910E+00 -1.51973982E+01  7.59869910E+00  7.59869910E+00
 -1.51973982E+01  7.59869910E+00  7.59869910E+00 -1.51973982E+01  7.59869910E+00
  7.59869910E+00 -1.51973982E+01  7.59869910E+00  7.59869910E+00 -1.51973982E+01
  7.59869910E+00  7.59869910E+00 -1.51973982E+01  7.59869910E+00  7.59869910E+00
 -1.51973982E+01  7.59869910E+00  7.59869910E+00 -1.51973982E+01  7.59869910E+00
  7.59869910E+00 -1.51973982E+01  7.59869910E+00  7.59869910E+00 -1.51973982E+01
  7.59869910E+00  7.59869910E+00 -1.51973982E+01  7.59869910E+00  7.59869910E+00
 -1.51973982E+01  7.59869910E+00  7.59869910E+00 -1.51973982E+01  7.59869910E+00
  7.59869910E+00 -1.51973982E+01  7.59869910E+00  7.59869910E+00 -1.51973982E+01
  7.59869910E+00  7.59869910E+00 -1.51973982E+01  7.59869910E+00  7.59869910E+00
 -1.51973982E+01  7.59869910E+00  7.59869910E+00 -1.51973982E+01  7.59869910E+00
  7.59869910E+00 -1.51973982E+01  7.59869910E+00  7.59869910E+00 -1.51973982E+01
  7.59869910E+00  7.59869910E+00 -1.51973982E+01  7.59869910E+00  7.59869910E+00
 -1.51973982E+01  7.59869910E+00  7.59869910E+00 -1.51973982E+01  7.59869910E+00
  7.59869910E+00 -1.51973982E+01  7.59869910E+00  7.59869910E+00 -1.51973982E+01
  7.59869910E+00  7.59869910E+00 -1.51973982E+01  7.59869910E+00  7.59869910E+00
 -1.51973982E+01  7.59869910E+00  7.59869910E+00 -1.51973982E+01  7.59869910E+00
  7.59869910E+00 -1.51973982E+01  7.59869910E+00  7.59869910E+00 -1.51973982E+01
  7.59869910E+00  7.59869910E+00 -1.51973982E+01  7.59869910E+00  7.59869910E+00
 -1.51973982E+01  7.59869910E+00  7.59869910E+00 -1.51973982E+01  7.59869910E+00
  7.59869910E+00 -1.51973982E+01  7.59869910E+00  7.59869910E+00 -1.51973982E+01
  7.59869910E+00  7.59869910E+00 -1.51973982E+01  7.59869910E+00  7.59869910E+00
 -1.51973982E+01  7.59869910E+00  7.59869910E+00 -1.51973982E+01  7.59869910E+00
  7.59869910E+00 -1.51973982E+01  7.59869910E+00  7.59869910E+00 -1.51973982E+01
  7.59869910E+00  7.59869910E+00 -1.51973982E+01  7.59869910E+00  7.59869910E+00
 -1.51973982E+01  7.59869910E+00  7.59869910E+00 -1.51973982E+01  7.59869910E+00
  7.59869910E+00 -1.51973982E+01  7.59869910E+00  7.59869910E+00 -1.51973982E+01
  7.59869910E+00  7.59869910E+00 -1.51973982E+01  7.59869910E+00  7.59869910E+00
 -1.51973982E+01  7.59869910E+00  7.59869910E+00 -1.51973982E+01  7.59869910E+00
  7.59869910E+00 -1.51973982E+01  7.59869910E+00  7.59869910E+00 -1.51973982E+01
  7.59869910E+00  7.59869910E+00 -1.51973982E+01  7.59869910E+00  7.59869910E+00
 -1.51973982E+01  7.59869910E+00  7.59869910E+00 -1.51973982E+01  7.59869910E+00
  7.59869910E+00 -1.51973982E+01  7.59869910E+00  7.59869910E+00 -1.51973982E+01
  7.59869910E+00  7.59869910E+00 -1.51973982E+01  7.59869910E+00  7.59869910E+00
 -1.51973982E+01  7.59869910E+00  7.59869910E+00 -1.51973982E+01  7.59869910E+00
  7.59869910E+00 -1.51973982E+01  7.59869910E+00  7.59869910E+00 -1.51973982E+01
  7.59869910E+00  7.59869910E+00 -1.51973982E+01  7.59869910E+00  7.59869910E+00
 -1.51973982E+01  7.59869910E+00  7.59869910E+00 -1.51973982E+01  7.59869910E+00
  7.59869910E+00 -1.51973982E+01  7.59869910E+00  7.59869910E+00 -1.51973982E+01
  7.59869910E+00  7.59869910E+00 -1.51973982E+01  7.59869910E+00  7.59869910E+00
 -1.51973982E+01  7.59869910E+00  7.59869910E+00 -1.51973982E+01  7.59869910E+00
  7.59869910E+00 -1.51973982E+01  7.59869910E+00  7.59869910E+00 -1.51973982E+01
  7.59869910E+00  7.59869910E+00 -1.51973982E+01  7.59869910E+00  7.59869910E+00
 -1.51973982E+01  7.59869910E+00  7.59869910E+00 -1.51973982E+01  7.59869910E+00
  7.59869910E+00 -1.51973982E+01  7.59869910E+00  7.59869910E+00 -1.51973982E+01
  7.59869910E+00  7.59869910E+00 -1.51973982E+01  7.59869910E+00  7.59869910E+00
 -1.51973982E+01  7.59869910E+00  7.59869910E+00 -1.51973982E+01  7.59869910E+00
  7.59869910E+00 -1.51973982E+01  7.59869910E+00  7.59869910E+00 -1.51973982E+01
  7.59869910E+00  7.59869910E+00 -1.51973982E+01  7.59869910E+00  7.59869910E+00
 -1.51973982E+01  7.59869910E+00  7.59869910E+00 -1.51973982E+01  7.59869910E+00
  7.59869910E+00 -1.51973982E+01  7.59869910E+00  7.59869910E+00 -1.51973982E+01
  7.59869910E+00  7.59869910E+00 -1.51973982E+01  7.59869910E+00  7.59869910E+00
 -1.51973982E+01  7.59869910E+00  7.59869910E+00 -1.51973982E+01  7.59869910E+00
  7.59869910E+00 -1.51973982E+01  7.59869910E+00  7.59869910E+00 -1.51973982E+01
  7.59869910E+00  7.59869910E+00 -1.51973982E+01  7.59869910E+00  7.59869910E+00
 -1.51973982E+01  7.59869910E+00  7.59869910E+00 -1.51973982E+01  7.59869910E+00
  7.59869910E+00 -1.51973982E+01  7.59869910E+00  7.59869910E+00 -1.51973982E+01
  7.59869910E+00  7.59869910E+00 -1.51973982E+01  7.59869910E+00  7.59869910E+00
 -1.51973982E+01  7.59869910E+00  7.59869910E+00 -1.51973982E+01  7.59869910E+00
  7.59869910E+00 -1.51973982E+01  7.59869910E+00  7.59869910E+00 -1.51973982E+01
  7.59869910E+00  7.59869910E+00 -1.51973982E+01  7.59869910E+00  7.59869910E+00
 -1.51973982E+01  7.59869910E+00  7.59869910E+00 -1.51973982E+01  7.59869910E+00
  7.59869910E+00 -1.51973982E+01  7.59869910E+00  7.59869910E+00 -1.51973982E+01
  7.59869910E+00  7.59869910E+00 -1.51973982E+01  7.59869910E+00  7.59869910E+00
 -1.51973982E+01  7.59869910E+00  7.59869910E+00 -1.51973982E+01  7.59869910E+00
  7.59869910E+00 -1.51973982E+01  7.59869910E+00  7.59869910E+00 -1.51973982E+01
  7.59869910E+00  7.59869910E+00 -1.51973982E+01  7.59869910E+00  7.59869910E+00
 -1.51973982E+01  7.59869910E+00  7.59869910E+00 -1.51973982E+01  7.59869910E+00
  7.59869910E+00 -1.51973982E+01  7.59869910E+00  7.59869910E+00 -1.51973982E+01
  7.59869910E+00  7.59869910E+00 -1.51973982E+01  7.59869910E+00  7.59869910E+00
 -1.51973982E+01  7.59869910E+00  7.59869910E+00 -1.51973982E+01  7.59869910E+00
  7.59869910E+00 -1.51973982E+01  7.59869910E+00  7.59869910E+00 -1.51973982E+01
  7.59869910E+00  7.59869910E+00 -1.51973982E+01  7.59869910E+00  7.59869910E+00
 -1.51973982E+01  7.59869910E+00  7.59869910E+00 -1.51973982E+01  7.59869910E+00
  7.59869910E+00 -1.51973982E+01  7.59869910E+00  7.59869910E+00 -1.51973982E+01
  7.59869910E+00  7.59869910E+00 -1.51973982E+01  7.59869910E+00  7.59869910E+00
 -1.51973982E+01  7.59869910E+00  7.59869910E+00 -1.51973982E+01  7.59869910E+00
  7.59869910E+00 -1.51973982E+01  7.59869910E+00  7.59869910E+00 -1.51973982E+01
  7.59869910E+00  7.59869910E+00 -1.51973982E+01  7.59869910E+00  7.59869910E+00
 -1.51973982E+01  7.59869910E+00  7.59869910E+00 -1.51973982E+01  7.59869910E+00
  7.59869910E+00 -1.51973982E+01  7.59869910E+00  7.59869910E+00 -1.51973982E+01
  7.59869910E+00  7.59869910E+00 -1.51973982E+01  7.59869910E+00  7.59869910E+00
 -1.51973982E+01  7.59869910E+00  7.59869910E+00 -1.51973982E+01  7.59869910E+00
  7.59869910E+00 -1.51973982E+01  7.59869910E+00  7.59869910E+00 -1.51973982E+01
  7.59869910E+00  7.59869910E+00 -1.51973982E+01  7.59869910E+00  7.59869910E+00
 -1.51973982E+01  7.59869910E+00  7.59869910E+00 -1.51973982E+01  7.59869910E+00
  7.59869910E+00 -1.51973982E+01  7.59869910E+00  7.59869910E+00 -1.51973982E+01
  7.59869910E+00  7.59869910E+00 -1.51973982E+01  7.59869910E+00  7.59869910E+00
 -1.51973982E+01  7.59869910E+00  7.59869910E+00 -1.51973982E+01  7.59869910E+00
  7.59869910E+00 -1.51973982E+01  7.59869910E+00  7.59869910E+00 -1.51973982E+01
  7.59869910E+00  7.59869910E+00 -1.51973982E+01  7.59869910E+00  7.59869910E+00
 -1.51973982E+01  7.59869910E+00  7.59869910E+00 -1.51973982E+01  7.59869910E+00
  7.59869910E+00 -1.51973982E+01  7.59869910E+00  7.59869910E+00 -1.51973982E+01
  7.59869910E+00  7.59869910E+00 -1.51973982E+01  7.59869910E+00  7.59869910E+00
 -1.51973982E+01  7.59869910E+00  7.59869910E+00 -1.51973982E+01  7.59869910E+00
  7.59869910E+00 -1.51973982E+01  7.59869910E+00  7.59869910E+00 -1.51973982E+01
  7.59869910E+00  7.59869910E+00 -1.51973982E+01  7.59869910E+00  7.59869910E+00
 -1.51973982E+01  7.59869910E+00  7.59869910E+00 -1.51973982E+01  7.59869910E+00
  7.59869910E+00 -1.51973982E+01  7.59869910E+00  7.59869910E+00 -1.51973982E+01
  7.59869910E+00  7.59869910E+00 -1.51973982E+01  7.59869910E+00  7.59869910E+00
 -1.51973982E+01  7.59869910E+00  7.59869910E+00 -1.51973982E+01  7.59869910E+00
  7.59869910E+00 -1.51973982E+01  7.59869910E+00  7.59869910E+00 -1.51973982E+01
  7.59869910E+00  7.59869910E+00 -1.51973982E+01  7.59869910E+00  7.59869910E+00
 -1.51973982E+01  7.59869910E+00  7.59869910E+00 -1.51973982E+01  7.59869910E+00
  7.59869910E+00 -1.51973982E+01  7.59869910E+00  7.59869910E+00 -1.51973982E+01
  7.59869910E+00  7.59869910E+00 -1.51973982E+01  7.59869910E+00  7.59869910E+00
 -1.51973982E+01  7.59869910E+00  7.59869910E+00 -1.51973982E+01  7.59869910E+00
  7.59869910E+00 -1.51973982E+01  7.59869910E+00  7.59869910E+00 -1.51973982E+01
  7.59869910E+00  7.59869910E+00 -1.51973982E+01  7.59869910E+00  7.59869910E+00
 -1.51973982E+01  7.59869910E+00  7.59869910E+00 -1.51973982E+01  7.59869910E+00
  7.59869910E+00 -1.51973982E+01  7.59869910E+00  7.59869910E+00 -1.51973982E+01
  7.59869910E+00  7.59869910E+00 -1.51973982E+01  7.59869910E+00  7.59869910E+00
 -1.51973982E+01  7.59869910E+00  7.59869910E+00 -1.51973982E+01  7.59869910E+00
  7.59869910E+00 -1.51973982E+01  7.59869910E+00  7.59869910E+00 -1.51973982E+01
  7.59869910E+00  7.59869910E+00 -1.51973982E+01  7.59869910E+00  7.59869910E+00
 -1.51973982E+01  7.59869910E+00  7.59869910E+00 -1.51973982E+01  7.59869910E+00
  7.59869910E+00 -1.51973982E+01  7.59869910E+00  7.59869910E+00 -1.51973982E+01
  7.59869910E+00  7.59869910E+00 -1.51973982E+01  7.59869910E+00  7.59869910E+00
 -1.51973982E+01  7.59869910E+00  7.59869910E+00 -1.51973982E+01  7.59869910E+00
  7.59869910E+00 -1.51973982E+01  7.59869910E+00  7.59869910E+00 -1.51973982E+01
  7.59869910E+00  7.59869910E+00 -1.51973982E+01  7.59869910E+00  7.59869910E+00
 -1.51973982E+01  7.59869910E+00  7.59869910E+00 -1.51973982E+01  7.59869910E+00
  7.59869910E+00 -1.51973982E+01  7.59869910E+00  7.59869910E+00 -1.51973982E+01
  7.59869910E+00  7.59869910E+00 -1.51973982E+01  7.59869910E+00  7.59869910E+00
 -1.51973982E+01  7.59869910E+00  7.59869910E+00 -1.51973982E+01  7.59869910E+00
  7.59869910E+00 -1.51973982E+01  7.59869910E+00  7.59869910E+00 -1.51973982E+01
  7.59869910E+00  7.59869910E+00 -1.51973982E+01  7.59869910E+00  7.59869910E+00
 -1.51973982E+01  7.59869910E+00  7.59869910E+00 -1.51973982E+01  7.59869910E+00
  7.59869910E+00 -1.51973982E+01  7.59869910E+00  7.59869910E+00 -1.51973982E+01
  7.59869910E+00  7.59869910E+00 -1.51973982E+01  7.59869910E+00  7.59869910E+00
 -1.51973982E+01  7.59869910E+00  7.59869910E+00 -1.51973982E+01  7.59869910E+00
  7.59869910E+00 -1.51973982E+01  7.59869910E+00  7.59869910E+00 -1.51973982E+01
  7.59869910E+00  7.59869910E+00 -1.51973982E+01  7.59869910E+00  7.59869910E+00
 -1.51973982E+01  7.59869910E+00  7.59869910E+00 -1.51973982E+01  7.59869910E+00
  7.59869910E+00 -1.51973982E+01  7.59869910E+00  7.59869910E+00 -1.51973982E+01
  7.59869910E+00  7.59869910E+00 -1.51973982E+01  7.59869910E+00  7.59869910E+00
 -1.51973982E+01  7.59869910E+00  7.59869910E+00 -1.51973982E+01  7.59869910E+00
  7.59869910E+00 -1.51973982E+01  7.59869910E+00  7.59869910E+00 -1.51973982E+01
  7.59869910E+00  7.59869910E+00 -1.51973982E+01  7.59869910E+00  7.59869910E+00
 -1.51973982E+01  7.59869910E+00  7.59869910E+00 -1.51973982E+01  7.59869910E+00
  7.59869910E+00 -1.51973982E+01  7.59869910E+00  7.59869910E+00 -1.51973982E+01
  7.59869910E+00  7.59869910E+00 -1.51973982E+01  7.59869910E+00  7.59869910E+00
 -1.51973982E+01  7.59869910E+00  7.59869910E+00 -1.51973982E+01  7.59869910E+00
  7.59869910E+00 -1.51973982E+01  7.59869910E+00  7.59869910E+00 -1.51973982E+01
  7.59869910E+00  7.59869910E+00 -1.51973982E+01  7.59869910E+00  7.59869910E+00
 -1.51973982E+01  7.59869910E+00  7.59869910E+00 -1.51973982E+01  7.59869910E+00
  7.59869910E+00 -1.51973982E+01  7.59869910E+00  7.59869910E+00 -1.51973982E+01
  7.59869910E+00  7.59869910E+00 -1.51973982E+01  7.59869910E+00  7.59869910E+00
 -1.51973982E+01  7.59869910E+00  7.59869910E+00 -1.51973982E+01  7.59869910E+00
  7.59869910E+00 -1.51973982E+01  7.59869910E+00  7.59869910E+00 -1.51973982E+01
  7.59869910E+00  7.59869910E+00 -1.51973982E+01  7.59869910E+00  7.59869910E+00
 -1.51973982E+01  7.59869910E+00  7.59869910E+00 -1.51973982E+01  7.59869910E+00
  7.59869910E+00 -1.51973982E+01  7.59869910E+00  7.59869910E+00 -1.51973982E+01
  7.59869910E+00  7.59869910E+00 -1.51973982E+01  7.59869910E+00  7.59869910E+00
 -1.51973982E+01  7.59869910E+00  7.59869910E+00 -1.51973982E+01  7.59869910E+00
  7.59869910E+00 -1.51973982E+01  7.59869910E+00  7.59869910E+00 -1.51973982E+01
  7.59869910E+00  7.59869910E+00 -1.51973982E+01  7.59869910E+00  7.59869910E+00
 -1.51973982E+01  7.59869910E+00  7.59869910E+00 -1.51973982E+01  7.59869910E+00
  7.59869910E+00 -1.51973982E+01  7.59869910E+00  7.59869910E+00 -1.51973982E+01
  7.59869910E+00  7.59869910E+00 -1.51973982E+01  7.59869910E+00  7.59869910E+00
 -1.51973982E+01  7.59869910E+00  7.59869910E+00 -1.51973982E+01  7.59869910E+00
  7.59869910E+00 -1.51973982E+01  7.59869910E+00  7.59869910E+00 -1.51973982E+01
  7.59869910E+00  7.59869910E+00 -1.51973982E+01  7.59869910E+00  7.59869910E+00
 -1.51973982E+01  7.59869910E+00  7.59869910E+00 -1.51973982E+01  7.59869910E+00
  7.59869910E+00 -1.51973982E+01  7.59869910E+00  7.59869910E+00 -1.51973982E+01
  7.59869910E+00  7.59869910E+00 -1.51973982E+01  7.59869910E+00  7.59869910E+00
 -1.51973982E+01  7.59869910E+00  7.59869910E+00 -1.51973982E+01  7.59869910E+00
  7.59869910E+00 -1.51973982E+01  7.59869910E+00  7.59869910E+00 -1.51973982E+01
  7.59869910E+00  7.59869910E+00 -1.51973982E+01  7.59869910E+00  7.59869910E+00
 -1.51973982E+01  7.59869910E+00  7.59869910E+00 -1.51973982E+01  7.59869910E+00
  7.59869910E+00 -1.51973982E+01  7.59869910E+00  7.59869910E+00 -1.51973982E+01
  7.59869910E+00  7.59869910E+00 -1.51973982E+01  7.59869910E+00  7.59869910E+00
 -1.51973982E+01  7.59869910E+00  7.59869910E+00 -1.51973982E+01  7.59869910E+00
  7.59869910E+00 -1.51973982E+01  7.59869910E+00  7.59869910E+00 -1.51973982E+01
  7.59869910E+00  7.59869910E+00 -1.51973982E+01  7.59869910E+00  7.59869910E+00
 -1.51973982E+01  7.59869910E+00  7.59869910E+00 -1.51973982E+01  7.59869910E+00
  7.59869910E+00 -1.51973982E+01  7.59869910E+00  7.59869910E+00 -1.51973982E+01
  7.59869910E+00  7.59869910E+00 -1.51973982E+01  7.59869910E+00  7.59869910E+00
 -1.51973982E+01  7.59869910E+00  7.59869910E+00 -1.51973982E+01  7.59869910E+00
  7.59869910E+00 -1.51973982E+01  7.59869910E+00  7.59869910E+00 -1.51973982E+01
  7.59869910E+00  7.59869910E+00 -1.51973982E+01  7.59869910E+00  7.59869910E+00
 -1.51973982E+01  7.59869910E+00  7.59869910E+00 -1.51973982E+01  7.59869910E+00
  7.59869910E+00 -1.51973982E+01  7.59869910E+00  7.59869910E+00 -1.51973982E+01
  7.59869910E+00  7.59869910E+00 -1.51973982E+01  7.59869910E+00  7.59869910E+00
 -1.51973982E+01  7.59869910E+00  7.59869910E+00 -1.51973982E+01  7.59869910E+00
  7.59869910E+00 -1.51973982E+01  7.59869910E+00  7.59869910E+00 -1.51973982E+01
  7.59869910E+00  7.59869910E+00 -1.51973982E+01  7.59869910E+00  7.59869910E+00
 -1.51973982E+01  7.59869910E+00  7.59869910E+00 -1.51973982E+01  7.59869910E+00
  7.59869910E+00 -1.51973982E+01  7.59869910E+00  7.59869910E+00 -1.51973982E+01
  7.59869910E+00  7.59869910E+00 -1.51973982E+01  7.59869910E+00  7.59869910E+00
 -1.51973982E+01  7.59869910E+00  7.59869910E+00 -1.51973982E+01  7.59869910E+00
  7.59869910E+00 -1.51973982E+01  7.59869910E+00  7.59869910E+00 -1.51973982E+01
  7.59869910E+00  7.59869910E+00 -1.51973982E+01  7.59869910E+00  7.59869910E+00
 -1.51973982E+01  7.59869910E+00  7.59869910E+00 -1.51973982E+01  7.59869910E+00
  7.59869910E+00 -1.51973982E+01  7.59869910E+00  7.59869910E+00 -1.51973982E+01
  7.59869910E+00  7.59869910E+00 -1.51973982E+01  7.59869910E+00  7.59869910E+00
 -1.51973982E+01  7.59869910E+00  7.59869910E+00 -1.51973982E+01  7.59869910E+00
  7.59869910E+00 -1.51973982E+01  7.59869910E+00  7.59869910E+00 -1.51973982E+01
  7.59869910E+00  7.59869910E+00 -1.51973982E+01  7.59869910E+00  7.59869910E+00
 -1.51973982E+01  7.59869910E+00  7.59869910E+00 -1.51973982E+01  7.59869910E+00
  7.59869910E+00 -1.51973982E+01  7.59869910E+00  7.59869910E+00 -1.51973982E+01
  7.59869910E+00  7.59869910E+00 -1.51973982E+01  7.59869910E+00  7.59869910E+00
 -1.51973982E+01  7.59869910E+00  7.59869910E+00 -1.51973982E+01  7.59869910E+00
  7.59869910E+00 -1.51973982E+01  7.59869910E+00  7.59869910E+00 -1.51973982E+01
  7.59869910E+00  7.59869910E+00 -1.51973982E+01  7.59869910E+00  7.59869910E+00
 -1.51973982E+01  7.59869910E+00  7.59869910E+00 -1.51973982E+01  7.59869910E+00
  7.59869910E+00 -1.51973982E+01  7.59869910E+00  7.59869910E+00 -1.51973982E+01
  7.59869910E+00  7.59869910E+00 -1.51973982E+01  7.59869910E+00  7.59869910E+00
 -1.51973982E+01  7.59869910E+00  7.59869910E+00 -1.51973982E+01  7.59869910E+00
  7.59869910E+00 -1.51973982E+01  7.59869910E+00  7.59869910E+00 -1.51973982E+01
  7.59869910E+00  7.59869910E+00 -1.51973982E+01  7.59869910E+00  7.59869910E+00
 -1.51973982E+01  7.59869910E+00  7.59869910E+00 -1.51973982E+01  7.59869910E+00
  7.59869910E+00 -1.51973982E+01  7.59869910E+00  7.59869910E+00 -1.51973982E+01
  7.59869910E+00  7.59869910E+00 -1.51973982E+01  7.59869910E+00  7.59869910E+00
 -1.51973982E+01  7.59869910E+00  7.59869910E+00 -1.51973982E+01  7.59869910E+00
  7.59869910E+00 -1.51973982E+01  7.59869910E+00  7.59869910E+00 -1.51973982E+01
  7.59869910E+00  7.59869910E+00 -1.51973982E+01  7.59869910E+00  7.59869910E+00
 -1.51973982E+01  7.59869910E+00  7.59869910E+00 -1.51973982E+01  7.59869910E+00
  7.59869910E+00 -1.51973982E+01  7.59869910E+00  7.59869910E+00 -1.51973982E+01
  7.59869910E+00  7.59869910E+00 -1.51973982E+01  7.59869910E+00  7.59869910E+00
 -1.51973982E+01  7.59869910E+00  7.59869910E+00 -1.51973982E+01  7.59869910E+00
  7.59869910E+00 -1.51973982E+01  7.59869910E+00  7.59869910E+00 -1.51973982E+01
  7.59869910E+00  7.59869910E+00 -1.51973982E+01  7.59869910E+00  7.59869910E+00
 -1.51973982E+01  7.59869910E+00  7.59869910E+00 -1.51973982E+01  7.59869910E+00
  7.59869910E+00 -1.51973982E+01  7.59869910E+00  7.59869910E+00 -1.51973982E+01
  7.59869910E+00  7.59869910E+00 -1.51973982E+01  7.59869910E+00  7.59869910E+00
 -1.51973982E+01  7.59869910E+00  7.59869910E+00 -1.51973982E+01  7.59869910E+00
  7.59869910E+00 -1.51973982E+01  7.59869910E+00  7.59869910E+00 -1.51973982E+01
  7.59869910E+00  7.59869910E+00 -1.51973982E+01  7.59869910E+00  7.59869910E+00
 -1.51973982E+01  7.59869910E+00  7.59869910E+00 -1.51973982E+01  7.59869910E+00
  7.59869910E+00 -1.51973982E+01  7.59869910E+00  7.59869910E+00 -1.51973982E+01
  7.59869910E+00  7.59869910E+00 -1.51973982E+01  7.59869910E+00  7.59869910E+00
 -1.51973982E+01  7.59869910E+00  7.59869910E+00 -1.51973982E+01  7.59869910E+00
  7.59869910E+00 -1.51973982E+01  7.59869910E+00  7.59869910E+00 -1.51973982E+01
  7.59869910E+00  7.59869910E+00 -1.51973982E+01  7.59869910E+00  7.59869910E+00
 -1.51973982E+01  7.59869910E+00  7.59869910E+00 -1.51973982E+01  7.59869910E+00
  7.59869910E+00 -1.51973982E+01  7.59869910E+00  7.59869910E+00 -1.51973982E+01
  7.59869910E+00  7.59869910E+00 -1.51973982E+01  7.59869910E+00  7.59869910E+00
 -1.51973982E+01  7.59869910E+00  7.59869910E+00 -1.51973982E+01  7.59869910E+00
  7.59869910E+00 -1.51973982E+01  7.59869910E+00  7.59869910E+00 -1.51973982E+01
  7.59869910E+00  7.59869910E+00 -1.51973982E+01  7.59869910E+00  7.59869910E+00
 -1.51973982E+01  7.59869910E+00  7.59869910E+00 -1.51973982E+01  7.59869910E+00
  7.59869910E+00 -1.51973982E+01  7.59869910E+00  7.59869910E+00 -1.51973982E+01
  7.59869910E+00  7.59869910E+00 -1.51973982E+01  7.59869910E+00  7.59869910E+00
 -1.51973982E+01  7.59869910E+00  7.59869910E+00 -1.51973982E+01  7.59869910E+00
  7.59869910E+00 -1.51973982E+01  7.59869910E+00  7.59869910E+00 -1.51973982E+01
  7.59869910E+00  7.59869910E+00 -1.51973982E+01  7.59869910E+00  7.59869910E+00
 -1.51973982E+01  7.59869910E+00  7.59869910E+00 -1.51973982E+01  7.59869910E+00
  7.59869910E+00 -1.51973982E+01  7.59869910E+00  7.59869910E+00 -1.51973982E+01
  7.59869910E+00  7.59869910E+00 -1.51973982E+01  7.59869910E+00  7.59869910E+00
 -1.51973982E+01  7.59869910E+00  7.59869910E+00 -1.51973982E+01  7.59869910E+00
  7.59869910E+00 -1.51973982E+01  7.59869910E+00  7.59869910E+00 -1.51973982E+01
  7.59869910E+00  7.59869910E+00 -1.51973982E+01  7.59869910E+00  7.59869910E+00
 -1.51973982E+01  7.59869910E+00  7.59869910E+00 -1.51973982E+01  7.59869910E+00
  7.59869910E+00 -1.51973982E+01  7.59869910E+00  7.59869910E+00 -1.51973982E+01
  7.59869910E+00  7.59869910E+00 -1.51973982E+01  7.59869910E+00  7.59869910E+00
 -1.51973982E+01  7.59869910E+00  7.59869910E+00 -1.51973982E+01  7.59869910E+00
  7.59869910E+00 -1.51973982E+01  7.59869910E+00  7.59869910E+00 -1.51973982E+01
  7.59869910E+00  7.59869910E+00 -1.51973982E+01  7.59869910E+00  7.59869910E+00
 -1.51973982E+01  7.59869910E+00  7.59869910E+00 -1.51973982E+01  7.59869910E+00
  7.59869910E+00 -1.51973982E+01  7.59869910E+00  7.59869910E+00 -1.51973982E+01
  7.59869910E+00  7.59869910E+00 -1.51973982E+01  7.59869910E+00  7.59869910E+00
 -1.51973982E+01  7.59869910E+00  7.59869910E+00 -1.51973982E+01  7.59869910E+00
  7.59869910E+00 -1.51973982E+01  7.59869910E+00  7.59869910E+00 -1.51973982E+01
  7.59869910E+00  7.59869910E+00 -1.51973982E+01  7.59869910E+00  7.59869910E+00
 -1.51973982E+01  7.59869910E+00  7.59869910E+00 -1.51973982E+01  7.59869910E+00
  7.59869910E+00 -1.51973982E+01  7.59869910E+00  7.59869910E+00 -1.51973982E+01
  7.59869910E+00  7.59869910E+00 -1.51973982E+01  7.59869910E+00  7.59869910E+00
 -1.51973982E+01  7.59869910E+00  7.59869910E+00 -1.51973982E+01  7.59869910E+00
  7.59869910E+00 -1.51973982E+01  7.59869910E+00  7.59869910E+00 -1.51973982E+01
  7.59869910E+00  7.59869910E+00 -1.51973982E+01  7.59869910E+00  7.59869910E+00
 -1.51973982E+01  7.59869910E+00  7.59869910E+00 -1.51973982E+01  7.59869910E+00
  7.59869910E+00 -1.51973982E+01  7.59869910E+00  7.59869910E+00 -1.51973982E+01
  7.59869910E+00  7.59869910E+00 -1.51973982E+01  7.59869910E+00  7.59869910E+00
 -1.51973982E+01  7.59869910E+00  7.59869910E+00 -1.51973982E+01  7.59869910E+00
  7.59869910E+00 -1.51973982E+01  7.59869910E+00  7.59869910E+00 -1.51973982E+01
  7.59869910E+00  7.59869910E+00 -1.51973982E+01  7.59869910E+00  7.59869910E+00
 -1.51973982E+01  7.59869910E+00  7.59869910E+00 -1.51973982E+01  7.59869910E+00
  7.59869910E+00 -1.51973982E+01  7.59869910E+00  7.59869910E+00 -1.51973982E+01
  7.59869910E+00  7.59869910E+00 -1.51973982E+01  7.59869910E+00  7.59869910E+00
 -1.51973982E+01  7.59869910E+00  7.59869910E+00 -1.51973982E+01  7.59869910E+00
  7.59869910E+00 -1.51973982E+01  7.59869910E+00  7.59869910E+00 -1.51973982E+01
  7.59869910E+00  7.59869910E+00 -1.51973982E+01  7.59869910E+00  7.59869910E+00
 -1.51973982E+01  7.59869910E+00  7.59869910E+00 -1.51973982E+01  7.59869910E+00
  7.59869910E+00 -1.51973982E+01  7.59869910E+00  7.59869910E+00 -1.51973982E+01
  7.59869910E+00  7.59869910E+00 -1.51973982E+01  7.59869910E+00  7.59869910E+00
 -1.51973982E+01  7.59869910E+00  7.59869910E+00 -1.51973982E+01  7.59869910E+00
  7.59869910E+00 -1.51973982E+01  7.59869910E+00  7.59869910E+00 -1.51973982E+01
  7.59869910E+00  7.59869910E+00 -1.51973982E+01  7.59869910E+00  7.59869910E+00
 -1.51973982E+01  7.59869910E+00  7.59869910E+00 -1.51973982E+01  7.59869910E+00
  7.59869910E+00 -1.51973982E+01  7.59869910E+00  7.59869910E+00 -1.51973982E+01
  7.59869910E+00  7.59869910E+00 -1.51973982E+01  7.59869910E+00  7.59869910E+00
 -1.51973982E+01  7.59869910E+00  7.59869910E+00 -1.51973982E+01  7.59869910E+00
  7.59869910E+00 -1.51973982E+01  7.59869910E+00  7.59869910E+00 -1.51973982E+01
  7.59869910E+00  7.59869910E+00 -1.51973982E+01  7.59869910E+00  7.59869910E+00
 -1.51973982E+01  7.59869910E+00  7.59869910E+00 -1.51973982E+01  7.59869910E+00
  7.59869910E+00 -1.51973982E+01  7.59869910E+00  7.59869910E+00 -1.51973982E+01
  7.59869910E+00  7.59869910E+00 -1.51973982E+01  7.59869910E+00  7.59869910E+00
 -1.51973982E+01  7.59869910E+00  7.59869910E+00 -1.51973982E+01  7.59869910E+00
  7.59869910E+00 -1.51973982E+01  7.59869910E+00  7.59869910E+00 -1.51973982E+01
  7.59869910E+00  7.59869910E+00 -1.51973982E+01  7.59869910E+00  7.59869910E+00
 -1.51973982E+01  7.59869910E+00  7.59869910E+00 -1.51973982E+01  7.59869910E+00
  7.59869910E+00 -1.51973982E+01  7.59869910E+00  7.59869910E+00 -1.51973982E+01
  7.59869910E+00  7.59869910E+00 -1.51973982E+01  7.59869910E+00  7.59869910E+00
 -1.51973982E+01  7.59869910E+00  7.59869910E+00 -1.51973982E+01  7.59869910E+00
  7.59869910E+00 -1.51973982E+01  7.59869910E+00  7.59869910E+00 -1.51973982E+01
  7.59869910E+00  7.59869910E+00 -1.51973982E+01  7.59869910E+00  7.59869910E+00
 -1.51973982E+01  7.59869910E+00  7.59869910E+00 -1.51973982E+01  7.59869910E+00
  7.59869910E+00 -1.51973982E+01  7.59869910E+00  7.59869910E+00 -1.51973982E+01
  7.59869910E+00  7.59869910E+00 -1.51973982E+01  7.59869910E+00  7.59869910E+00
 -1.51973982E+01  7.59869910E+00  7.59869910E+00 -1.51973982E+01  7.59869910E+00
  7.59869910E+00 -1.51973982E+01  7.59869910E+00  7.59869910E+00 -1.51973982E+01
  7.59869910E+00  7.59869910E+00 -1.51973982E+01  7.59869910E+00  7.59869910E+00
 -1.51973982E+01  7.59869910E+00  7.59869910E+00 -1.51973982E+01  7.59869910E+00
  7.59869910E+00 -1.51973982E+01  7.59869910E+00  7.59869910E+00 -1.51973982E+01
  7.59869910E+00  7.59869910E+00 -1.51973982E+01  7.59869910E+00  7.59869910E+00
 -1.51973982E+01  7.59869910E+00  7.59869910E+00 -1.51973982E+01  7.59869910E+00
  7.59869910E+00 -1.51973982E+01  7.59869910E+00  7.59869910E+00 -1.51973982E+01
  7.59869910E+00  7.59869910E+00 -1.51973982E+01  7.59869910E+00  7.59869910E+00
 -1.51973982E+01  7.59869910E+00  7.59869910E+00 -1.51973982E+01  7.59869910E+00
  7.59869910E+00 -1.51973982E+01  7.59869910E+00  7.59869910E+00 -1.51973982E+01
  7.59869910E+00  7.59869910E+00 -1.51973982E+01  7.59869910E+00  7.59869910E+00
 -1.51973982E+01  7.59869910E+00  7.59869910E+00 -1.51973982E+01  7.59869910E+00
  7.59869910E+00 -1.51973982E+01  7.59869910E+00  7.59869910E+00 -1.51973982E+01
  7.59869910E+00  7.59869910E+00 -1.51973982E+01  7.59869910E+00  7.59869910E+00
 -1.51973982E+01  7.59869910E+00  7.59869910E+00 -1.51973982E+01  7.59869910E+00
  7.59869910E+00 -1.51973982E+01  7.59869910E+00  7.59869910E+00 -1.51973982E+01
  7.59869910E+00  7.59869910E+00 -1.51973982E+01  7.59869910E+00  7.59869910E+00
 -1.51973982E+01  7.59869910E+00  7.59869910E+00 -1.51973982E+01  7.59869910E+00
  7.59869910E+00 -1.51973982E+01  7.59869910E+00  7.59869910E+00 -1.51973982E+01
  7.59869910E+00  7.59869910E+00 -1.51973982E+01  7.59869910E+00  7.59869910E+00
 -1.51973982E+01  7.59869910E+00  7.59869910E+00 -1.51973982E+01  7.59869910E+00
  7.59869910E+00 -1.51973982E+01  7.59869910E+00  7.59869910E+00 -1.51973982E+01
  7.59869910E+00  7.59869910E+00 -1.51973982E+01  7.59869910E+00  7.59869910E+00
 -1.51973982E+01  7.59869910E+00  7.59869910E+00 -1.51973982E+01  7.59869910E+00
  7.59869910E+00 -1.51973982E+01  7.59869910E+00  7.59869910E+00 -1.51973982E+01
  7.59869910E+00  7.59869910E+00 -1.51973982E+01  7.59869910E+00  7.59869910E+00
 -1.51973982E+01  7.59869910E+00  7.59869910E+00 -1.51973982E+01  7.59869910E+00
  7.59869910E+00 -1.51973982E+01  7.59869910E+00  7.59869910E+00 -1.51973982E+01
  7.59869910E+00  7.59869910E+00 -1.51973982E+01  7.59869910E+00  7.59869910E+00
 -1.51973982E+01  7.59869910E+00  7.59869910E+00 -1.51973982E+01  7.59869910E+00
  7.59869910E+00 -1.51973982E+01  7.59869910E+00  7.59869910E+00 -1.51973982E+01
  7.59869910E+00  7.59869910E+00 -1.51973982E+01  7.59869910E+00  7.59869910E+00
 -1.51973982E+01  7.59869910E+00  7.59869910E+00 -1.51973982E+01  7.59869910E+00
  7.59869910E+00 -1.51973982E+01  7.59869910E+00  7.59869910E+00 -1.51973982E+01
  7.59869910E+00  7.59869910E+00 -1.51973982E+01  7.59869910E+00  7.59869910E+00
 -1.51973982E+01  7.59869910E+00  7.59869910E+00 -1.51973982E+01  7.59869910E+00
  7.59869910E+00 -1.51973982E+01  7.59869910E+00  7.59869910E+00 -1.51973982E+01
  7.59869910E+00  7.59869910E+00 -1.51973982E+01  7.59869910E+00  7.59869910E+00
 -1.51973982E+01  7.59869910E+00  7.59869910E+00 -1.51973982E+01  7.59869910E+00
  7.59869910E+00 -1.51973982E+01  7.59869910E+00  7.59869910E+00 -1.51973982E+01
  7.59869910E+00  7.59869910E+00 -1.51973982E+01  7.59869910E+00  7.59869910E+00
 -1.51973982E+01  7.59869910E+00  7.59869910E+00 -1.51973982E+01  7.59869910E+00
  7.59869910E+00 -1.51973982E+01  7.59869910E+00  7.59869910E+00 -1.51973982E+01
  7.59869910E+00  7.59869910E+00 -1.51973982E+01  7.59869910E+00  7.59869910E+00
 -1.51973982E+01  7.59869910E+00  7.59869910E+00 -1.51973982E+01  7.59869910E+00
  7.59869910E+00 -1.51973982E+01  7.59869910E+00  7.59869910E+00 -1.51973982E+01
  7.59869910E+00  7.59869910E+00 -1.51973982E+01  7.59869910E+00  7.59869910E+00
 -1.51973982E+01  7.59869910E+00  7.59869910E+00 -1.51973982E+01  7.59869910E+00
  7.59869910E+00 -1.51973982E+01  7.59869910E+00  7.59869910E+00 -1.51973982E+01
  7.59869910E+00  7.59869910E+00 -1.51973982E+01  7.59869910E+00  7.59869910E+00
 -1.51973982E+01  7.59869910E+00  7.59869910E+00 -1.51973982E+01  7.59869910E+00
  7.59869910E+00 -1.51973982E+01  7.59869910E+00  7.59869910E+00 -1.51973982E+01
  7.59869910E+00  7.59869910E+00 -1.51973982E+01  7.59869910E+00  7.59869910E+00
 -1.51973982E+01  7.59869910E+00  7.59869910E+00 -1.51973982E+01  7.59869910E+00
  7.59869910E+00 -1.51973982E+01  7.59869910E+00  7.59869910E+00 -1.51973982E+01
  7.59869910E+00  7.59869910E+00 -1.51973982E+01  7.59869910E+00  7.59869910E+00
 -1.51973982E+01  7.59869910E+00  7.59869910E+00 -1.51973982E+01  7.59869910E+00
  7.59869910E+00 -1.51973982E+01  7.59869910E+00  7.59869910E+00 -1.51973982E+01
  7.59869910E+00  7.59869910E+00 -1.51973982E+01  7.59869910E+00  7.59869910E+00
 -1.51973982E+01  7.59869910E+00  7.59869910E+00 -1.51973982E+01  7.59869910E+00
  7.59869910E+00 -1.51973982E+01  7.59869910E+00  7.59869910E+00 -1.51973982E+01
  7.59869910E+00  7.59869910E+00 -1.51973982E+01  7.59869910E+00  7.59869910E+00
 -1.51973982E+01  7.59869910E+00  7.59869910E+00 -1.51973982E+01  7.59869910E+00
  7.59869910E+00 -1.51973982E+01  7.59869910E+00  7.59869910E+00 -1.51973982E+01
  7.59869910E+00  7.59869910E+00 -1.51973982E+01  7.59869910E+00  7.59869910E+00
 -1.51973982E+01  7.59869910E+00  7.59869910E+00 -1.51973982E+01  7.59869910E+00
  7.59869910E+00 -1.51973982E+01  7.59869910E+00  7.59869910E+00 -1.51973982E+01
  7.59869910E+00  7.59869910E+00 -1.51973982E+01  7.59869910E+00  7.59869910E+00
 -1.51973982E+01  7.59869910E+00  7.59869910E+00 -1.51973982E+01  7.59869910E+00
  7.59869910E+00 -1.51973982E+01  7.59869910E+00  7.59869910E+00 -1.51973982E+01
  7.59869910E+00  7.59869910E+00 -1.51973982E+01  7.59869910E+00  7.59869910E+00
 -1.51973982E+01  7.59869910E+00  7.59869910E+00 -1.51973982E+01  7.59869910E+00
  7.59869910E+00 -1.51973982E+01  7.59869910E+00  7.59869910E+00 -1.51973982E+01
  7.59869910E+00  7.59869910E+00 -1.51973982E+01  7.59869910E+00  7.59869910E+00
 -1.51973982E+01  7.59869910E+00  7.59869910E+00 -1.51973982E+01  7.59869910E+00
  7.59869910E+00 -1.51973982E+01  7.59869910E+00  7.59869910E+00 -1.51973982E+01
  7.59869910E+00  7.59869910E+00 -1.51973982E+01  7.59869910E+00  7.59869910E+00
 -1.51973982E+01  7.59869910E+00  7.59869910E+00 -1.51973982E+01  7.59869910E+00
  7.59869910E+00 -1.51973982E+01  7.59869910E+00  7.59869910E+00 -1.51973982E+01
  7.59869910E+00  7.59869910E+00 -1.51973982E+01  7.59869910E+00  7.59869910E+00
 -1.51973982E+01  7.59869910E+00  7.59869910E+00 -1.51973982E+01  7.59869910E+00
  7.59869910E+00 -1.51973982E+01  7.59869910E+00  7.59869910E+00 -1.51973982E+01
  7.59869910E+00  7.59869910E+00 -1.51973982E+01  7.59869910E+00  7.59869910E+00
 -1.51973982E+01  7.59869910E+00  7.59869910E+00 -1.51973982E+01  7.59869910E+00
  7.59869910E+00 -1.51973982E+01  7.59869910E+00  7.59869910E+00 -1.51973982E+01
  7.59869910E+00  7.59869910E+00 -1.51973982E+01  7.59869910E+00  7.59869910E+00
 -1.51973982E+01  7.59869910E+00  7.59869910E+00 -1.51973982E+01  7.59869910E+00
  7.59869910E+00 -1.51973982E+01  7.59869910E+00  7.59869910E+00 -1.51973982E+01
  7.59869910E+00  7.59869910E+00 -1.51973982E+01  7.59869910E+00  7.59869910E+00
 -1.51973982E+01  7.59869910E+00  7.59869910E+00 -1.51973982E+01  7.59869910E+00
  7.59869910E+00 -1.51973982E+01  7.59869910E+00  7.59869910E+00 -1.51973982E+01
  7.59869910E+00  7.59869910E+00 -1.51973982E+01  7.59869910E+00  7.59869910E+00
 -1.51973982E+01  7.59869910E+00  7.59869910E+00 -1.51973982E+01  7.59869910E+00
  7.59869910E+00 -1.51973982E+01  7.59869910E+00  7.59869910E+00 -1.51973982E+01
  7.59869910E+00  7.59869910E+00 -1.51973982E+01  7.59869910E+00  7.59869910E+00
 -1.51973982E+01  7.59869910E+00  7.59869910E+00 -1.51973982E+01  7.59869910E+00
  7.59869910E+00 -1.51973982E+01  7.59869910E+00  7.59869910E+00 -1.51973982E+01
  7.59869910E+00  7.59869910E+00 -1.51973982E+01  7.59869910E+00  7.59869910E+00
 -1.51973982E+01  7.59869910E+00  7.59869910E+00 -1.51973982E+01  7.59869910E+00
  7.59869910E+00 -1.51973982E+01  7.59869910E+00  7.59869910E+00 -1.51973982E+01
  7.59869910E+00  7.59869910E+00 -1.51973982E+01  7.59869910E+00  7.59869910E+00
 -1.51973982E+01  7.59869910E+00  7.59869910E+00 -1.51973982E+01  7.59869910E+00
  7.59869910E+00 -1.51973982E+01  7.59869910E+00  7.59869910E+00 -1.51973982E+01
  7.59869910E+00  7.59869910E+00 -1.51973982E+01  7.59869910E+00  7.59869910E+00
 -1.51973982E+01  7.59869910E+00  7.59869910E+00 -1.51973982E+01  7.59869910E+00
  7.59869910E+00 -1.51973982E+01  7.59869910E+00  7.59869910E+00 -1.51973982E+01
  7.59869910E+00  7.59869910E+00 -1.51973982E+01  7.59869910E+00  7.59869910E+00
 -1.51973982E+01  7.59869910E+00  7.59869910E+00 -1.51973982E+01  7.59869910E+00
  7.59869910E+00 -1.51973982E+01  7.59869910E+00  7.59869910E+00 -1.51973982E+01
  7.59869910E+00  7.59869910E+00 -1.51973982E+01  7.59869910E+00  7.59869910E+00
 -1.51973982E+01  7.59869910E+00  7.59869910E+00 -1.51973982E+01  7.59869910E+00
  7.59869910E+00 -1.51973982E+01  7.59869910E+00  7.59869910E+00 -1.51973982E+01
  7.59869910E+00  7.59869910E+00 -1.51973982E+01  7.59869910E+00  7.59869910E+00
 -1.51973982E+01  7.59869910E+00  7.59869910E+00 -1.51973982E+01  7.59869910E+00
  7.59869910E+00 -1.51973982E+01  7.59869910E+00  7.59869910E+00 -1.51973982E+01
  7.59869910E+00  7.59869910E+00 -1.51973982E+01  7.59869910E+00  7.59869910E+00
 -1.51973982E+01  7.59869910E+00  7.59869910E+00 -1.51973982E+01  7.59869910E+00
  7.59869910E+00 -1.51973982E+01  7.59869910E+00  7.59869910E+00 -1.51973982E+01
  7.59869910E+00  7.59869910E+00 -1.51973982E+01  7.59869910E+00  7.59869910E+00
 -1.51973982E+01  7.59869910E+00  7.59869910E+00 -1.51973982E+01  7.59869910E+00
  7.59869910E+00 -1.51973982E+01  7.59869910E+00  7.59869910E+00 -1.51973982E+01
  7.59869910E+00  7.59869910E+00 -1.51973982E+01  7.59869910E+00  7.59869910E+00
 -1.51973982E+01  7.59869910E+00  7.59869910E+00 -1.51973982E+01  7.59869910E+00
  7.59869910E+00 -1.51973982E+01  7.59869910E+00  7.59869910E+00 -1.51973982E+01
  7.59869910E+00  7.59869910E+00 -1.51973982E+01  7.59869910E+00  7.59869910E+00
 -1.51973982E+01  7.59869910E+00  7.59869910E+00 -1.51973982E+01  7.59869910E+00
  7.59869910E+00 -1.51973982E+01  7.59869910E+00  7.59869910E+00 -1.51973982E+01
  7.59869910E+00  7.59869910E+00 -1.51973982E+01  7.59869910E+00  7.59869910E+00
 -1.51973982E+01  7.59869910E+00  7.59869910E+00 -1.51973982E+01  7.59869910E+00
  7.59869910E+00 -1.51973982E+01  7.59869910E+00  7.59869910E+00 -1.51973982E+01
  7.59869910E+00  7.59869910E+00 -1.51973982E+01  7.59869910E+00  7.59869910E+00
 -1.51973982E+01  7.59869910E+00  7.59869910E+00 -1.51973982E+01  7.59869910E+00
  7.59869910E+00 -1.51973982E+01  7.59869910E+00  7.59869910E+00 -1.51973982E+01
  7.59869910E+00  7.59869910E+00 -1.51973982E+01  7.59869910E+00  7.59869910E+00
 -1.51973982E+01  7.59869910E+00  7.59869910E+00 -1.51973982E+01  7.59869910E+00
  7.59869910E+00 -1.51973982E+01  7.59869910E+00  7.59869910E+00 -1.51973982E+01
  7.59869910E+00  7.59869910E+00 -1.51973982E+01  7.59869910E+00  7.59869910E+00
 -1.51973982E+01  7.59869910E+00  7.59869910E+00 -1.51973982E+01  7.59869910E+00
  7.59869910E+00 -1.51973982E+01  7.59869910E+00  7.59869910E+00 -1.51973982E+01
  7.59869910E+00  7.59869910E+00 -1.51973982E+01  7.59869910E+00  7.59869910E+00
 -1.51973982E+01  7.59869910E+00  7.59869910E+00 -1.51973982E+01  7.59869910E+00
  7.59869910E+00 -1.51973982E+01  7.59869910E+00  7.59869910E+00 -1.51973982E+01
  7.59869910E+00  7.59869910E+00 -1.51973982E+01  7.59869910E+00  7.59869910E+00
 -1.51973982E+01  7.59869910E+00  7.59869910E+00 -1.51973982E+01  7.59869910E+00
  7.59869910E+00 -1.51973982E+01  7.59869910E+00  7.59869910E+00 -1.51973982E+01
  7.59869910E+00  7.59869910E+00 -1.51973982E+01  7.59869910E+00  7.59869910E+00
 -1.51973982E+01  7.59869910E+00  7.59869910E+00 -1.51973982E+01  7.59869910E+00
  7.59869910E+00 -1.51973982E+01  7.59869910E+00  7.59869910E+00 -1.51973982E+01
  7.59869910E+00  7.59869910E+00 -1.51973982E+01  7.59869910E+00  7.59869910E+00
 -1.51973982E+01  7.59869910E+00  7.59869910E+00 -1.51973982E+01  7.59869910E+00
  7.59869910E+00 -1.51973982E+01  7.59869910E+00  7.59869910E+00 -1.51973982E+01
  7.59869910E+00  7.59869910E+00 -1.51973982E+01  7.59869910E+00  7.59869910E+00
 -1.51973982E+01  7.59869910E+00  7.59869910E+00 -1.51973982E+01  7.59869910E+00
  7.59869910E+00 -1.51973982E+01  7.59869910E+00  7.59869910E+00 -1.51973982E+01
  7.59869910E+00  7.59869910E+00 -1.51973982E+01  7.59869910E+00  7.59869910E+00
 -1.51973982E+01  7.59869910E+00  7.59869910E+00 -1.51973982E+01  7.59869910E+00
  7.59869910E+00 -1.51973982E+01  7.59869910E+00  7.59869910E+00 -1.51973982E+01
  7.59869910E+00  7.59869910E+00 -1.51973982E+01  7.59869910E+00  7.59869910E+00
 -1.51973982E+01  7.59869910E+00  7.59869910E+00 -1.51973982E+01  7.59869910E+00
  7.59869910E+00 -1.51973982E+01  7.59869910E+00  7.59869910E+00 -1.51973982E+01
  7.59869910E+00  7.59869910E+00 -1.51973982E+01  7.59869910E+00  7.59869910E+00
 -1.51973982E+01  7.59869910E+00  7.59869910E+00 -1.51973982E+01  7.59869910E+00
  7.59869910E+00 -1.51973982E+01  7.59869910E+00  7.59869910E+00 -1.51973982E+01
  7.59869910E+00  7.59869910E+00 -1.51973982E+01  7.59869910E+00  7.59869910E+00
 -1.51973982E+01  7.59869910E+00  7.59869910E+00 -1.51973982E+01  7.59869910E+00
  7.59869910E+00 -1.51973982E+01  7.59869910E+00  7.59869910E+00 -1.51973982E+01
  7.59869910E+00  7.59869910E+00 -1.51973982E+01  7.59869910E+00  7.59869910E+00
 -1.51973982E+01  7.59869910E+00  7.59869910E+00 -1.51973982E+01  7.59869910E+00
  7.59869910E+00 -1.51973982E+01  7.59869910E+00  7.59869910E+00 -1.51973982E+01
  7.59869910E+00  7.59869910E+00 -1.51973982E+01  7.59869910E+00  7.59869910E+00
 -1.51973982E+01  7.59869910E+00  7.59869910E+00 -1.51973982E+01  7.59869910E+00
  7.59869910E+00 -1.51973982E+01  7.59869910E+00  7.59869910E+00 -1.51973982E+01
  7.59869910E+00  7.59869910E+00 -1.51973982E+01  7.59869910E+00  7.59869910E+00
 -1.51973982E+01  7.59869910E+00  7.59869910E+00 -1.51973982E+01  7.59869910E+00
  7.59869910E+00 -1.51973982E+01  7.59869910E+00  7.59869910E+00 -1.51973982E+01
  7.59869910E+00  7.59869910E+00 -1.51973982E+01  7.59869910E+00  7.59869910E+00
 -1.51973982E+01  7.59869910E+00  7.59869910E+00 -1.51973982E+01  7.59869910E+00
  7.59869910E+00 -1.51973982E+01  7.59869910E+00  7.59869910E+00 -1.51973982E+01
  7.59869910E+00  7.59869910E+00 -1.51973982E+01  7.59869910E+00  7.59869910E+00
 -1.51973982E+01  7.59869910E+00  7.59869910E+00 -1.51973982E+01  7.59869910E+00
  7.59869910E+00 -1.51973982E+01  7.59869910E+00  7.59869910E+00 -1.51973982E+01
  7.59869910E+00  7.59869910E+00 -1.51973982E+01  7.59869910E+00  7.59869910E+00
 -1.51973982E+01  7.59869910E+00  7.59869910E+00 -1.51973982E+01  7.59869910E+00
  7.59869910E+00 -1.51973982E+01  7.59869910E+00  7.59869910E+00 -1.51973982E+01
  7.59869910E+00  7.59869910E+00 -1.51973982E+01  7.59869910E+00  7.59869910E+00
 -1.51973982E+01  7.59869910E+00  7.59869910E+00 -1.51973982E+01  7.59869910E+00
  7.59869910E+00 -1.51973982E+01  7.59869910E+00  7.59869910E+00 -1.51973982E+01
  7.59869910E+00  7.59869910E+00 -1.51973982E+01  7.59869910E+00  7.59869910E+00
 -1.51973982E+01  7.59869910E+00  7.59869910E+00 -1.51973982E+01  7.59869910E+00
  7.59869910E+00 -1.51973982E+01  7.59869910E+00  7.59869910E+00 -1.51973982E+01
  7.59869910E+00  7.59869910E+00 -1.51973982E+01  7.59869910E+00  7.59869910E+00
 -1.51973982E+01  7.59869910E+00  7.59869910E+00 -1.51973982E+01  7.59869910E+00
  7.59869910E+00 -1.51973982E+01  7.59869910E+00  7.59869910E+00 -1.51973982E+01
  7.59869910E+00  7.59869910E+00 -1.51973982E+01  7.59869910E+00  7.59869910E+00
 -1.51973982E+01  7.59869910E+00  7.59869910E+00 -1.51973982E+01  7.59869910E+00
  7.59869910E+00 -1.51973982E+01  7.59869910E+00  7.59869910E+00 -1.51973982E+01
  7.59869910E+00  7.59869910E+00 -1.51973982E+01  7.59869910E+00  7.59869910E+00
 -1.51973982E+01  7.59869910E+00  7.59869910E+00 -1.51973982E+01  7.59869910E+00
  7.59869910E+00 -1.51973982E+01  7.59869910E+00  7.59869910E+00 -1.51973982E+01
  7.59869910E+00  7.59869910E+00 -1.51973982E+01  7.59869910E+00  7.59869910E+00
 -1.51973982E+01  7.59869910E+00  7.59869910E+00 -1.51973982E+01  7.59869910E+00
  7.59869910E+00 -1.51973982E+01  7.59869910E+00  7.59869910E+00 -1.51973982E+01
  7.59869910E+00  7.59869910E+00 -1.51973982E+01  7.59869910E+00  7.59869910E+00
 -1.51973982E+01  7.59869910E+00  7.59869910E+00 -1.51973982E+01  7.59869910E+00
  7.59869910E+00 -1.51973982E+01  7.59869910E+00  7.59869910E+00 -1.51973982E+01
  7.59869910E+00  7.59869910E+00 -1.51973982E+01  7.59869910E+00  7.59869910E+00
 -1.51973982E+01  7.59869910E+00  7.59869910E+00 -1.51973982E+01  7.59869910E+00
  7.59869910E+00 -1.51973982E+01  7.59869910E+00  7.59869910E+00 -1.51973982E+01
  7.59869910E+00  7.59869910E+00 -1.51973982E+01  7.59869910E+00  7.59869910E+00
 -1.51973982E+01  7.59869910E+00  7.59869910E+00 -1.51973982E+01  7.59869910E+00
  7.59869910E+00 -1.51973982E+01  7.59869910E+00  7.59869910E+00 -1.51973982E+01
  7.59869910E+00  7.59869910E+00 -1.51973982E+01  7.59869910E+00  7.59869910E+00
 -1.51973982E+01  7.59869910E+00  7.59869910E+00 -1.51973982E+01  7.59869910E+00
  7.59869910E+00 -1.51973982E+01  7.59869910E+00  7.59869910E+00 -1.51973982E+01
  7.59869910E+00  7.59869910E+00 -1.51973982E+01  7.59869910E+00  7.59869910E+00
 -1.51973982E+01  7.59869910E+00  7.59869910E+00 -1.51973982E+01  7.59869910E+00
  7.59869910E+00 -1.51973982E+01  7.59869910E+00  7.59869910E+00 -1.51973982E+01
  7.59869910E+00  7.59869910E+00 -1.51973982E+01  7.59869910E+00  7.59869910E+00
 -1.51973982E+01  7.59869910E+00  7.59869910E+00 -1.51973982E+01  7.59869910E+00
  7.59869910E+00 -1.51973982E+01  7.59869910E+00  7.59869910E+00 -1.51973982E+01
  7.59869910E+00  7.59869910E+00 -1.51973982E+01  7.59869910E+00  7.59869910E+00
 -1.51973982E+01  7.59869910E+00  7.59869910E+00 -1.51973982E+01  7.59869910E+00
  7.59869910E+00 -1.51973982E+01  7.59869910E+00  7.59869910E+00 -1.51973982E+01
  7.59869910E+00  7.59869910E+00 -1.51973982E+01  7.59869910E+00  7.59869910E+00
 -1.51973982E+01  7.59869910E+00  7.59869910E+00 -1.51973982E+01  7.59869910E+00
  7.59869910E+00 -1.51973982E+01  7.59869910E+00  7.59869910E+00 -1.51973982E+01
  7.59869910E+00  7.59869910E+00 -1.51973982E+01  7.59869910E+00  7.59869910E+00
 -1.51973982E+01  7.59869910E+00  7.59869910E+00 -1.51973982E+01  7.59869910E+00
  7.59869910E+00 -1.51973982E+01  7.59869910E+00  7.59869910E+00 -1.51973982E+01
  7.59869910E+00  7.59869910E+00 -1.51973982E+01  7.59869910E+00  7.59869910E+00
 -1.51973982E+01  7.59869910E+00  7.59869910E+00 -1.51973982E+01  7.59869910E+00
  7.59869910E+00 -1.51973982E+01  7.59869910E+00  7.59869910E+00 -1.51973982E+01
  7.59869910E+00  7.59869910E+00 -1.51973982E+01  7.59869910E+00  7.59869910E+00
 -1.51973982E+01  7.59869910E+00  7.59869910E+00 -1.51973982E+01  7.59869910E+00
  7.59869910E+00 -1.51973982E+01  7.59869910E+00  7.59869910E+00 -1.51973982E+01
  7.59869910E+00  7.59869910E+00 -1.51973982E+01  7.59869910E+00  7.59869910E+00
 -1.51973982E+01  7.59869910E+00  7.59869910E+00 -1.51973982E+01  7.59869910E+00
  7.59869910E+00 -1.51973982E+01  7.59869910E+00  7.59869910E+00 -1.51973982E+01
  7.59869910E+00  7.59869910E+00 -1.51973982E+01  7.59869910E+00  7.59869910E+00
 -1.51973982E+01  7.59869910E+00  7.59869910E+00 -1.51973982E+01  7.59869910E+00
  7.59869910E+00 -1.51973982E+01  7.59869910E+00  7.59869910E+00 -1.51973982E+01
  7.59869910E+00  7.59869910E+00 -1.51973982E+01  7.59869910E+00  7.59869910E+00
 -1.51973982E+01  7.59869910E+00  7.59869910E+00 -1.51973982E+01  7.59869910E+00
  7.59869910E+00 -1.51973982E+01  7.59869910E+00  7.59869910E+00 -1.51973982E+01
  7.59869910E+00  7.59869910E+00 -1.51973982E+01  7.59869910E+00  7.59869910E+00
 -1.51973982E+01  7.59869910E+00  7.59869910E+00 -1.51973982E+01  7.59869910E+00
  7.59869910E+00 -1.51973982E+01  7.59869910E+00  7.59869910E+00 -1.51973982E+01
  7.59869910E+00  7.59869910E+00 -1.51973982E+01  7.59869910E+00  7.59869910E+00
 -1.51973982E+01  7.59869910E+00  7.59869910E+00 -1.51973982E+01  7.59869910E+00
  7.59869910E+00 -1.51973982E+01  7.59869910E+00  7.59869910E+00 -1.51973982E+01
  7.59869910E+00  7.59869910E+00 -1.51973982E+01  7.59869910E+00  7.59869910E+00
 -1.51973982E+01  7.59869910E+00  7.59869910E+00 -1.51973982E+01  7.59869910E+00
  7.59869910E+00 -1.51973982E+01  7.59869910E+00  7.59869910E+00 -1.51973982E+01
  7.59869910E+00  7.59869910E+00 -1.51973982E+01  7.59869910E+00  7.59869910E+00
 -1.51973982E+01  7.59869910E+00  7.59869910E+00 -1.51973982E+01  7.59869910E+00
  7.59869910E+00 -1.51973982E+01  7.59869910E+00  7.59869910E+00 -1.51973982E+01
  7.59869910E+00  7.59869910E+00 -1.51973982E+01  7.59869910E+00  7.59869910E+00
 -1.51973982E+01  7.59869910E+00  7.59869910E+00 -1.51973982E+01  7.59869910E+00
  7.59869910E+00 -1.51973982E+01  7.59869910E+00  7.59869910E+00 -1.51973982E+01
  7.59869910E+00  7.59869910E+00 -1.51973982E+01  7.59869910E+00  7.59869910E+00
 -1.51973982E+01  7.59869910E+00  7.59869910E+00 -1.51973982E+01  7.59869910E+00
  7.59869910E+00 -1.51973982E+01  7.59869910E+00  7.59869910E+00 -1.51973982E+01
  7.59869910E+00  7.59869910E+00 -1.51973982E+01  7.59869910E+00  7.59869910E+00
 -1.51973982E+01  7.59869910E+00  7.59869910E+00 -1.51973982E+01  7.59869910E+00
  7.59869910E+00 -1.51973982E+01  7.59869910E+00  7.59869910E+00 -1.51973982E+01
  7.59869910E+00  7.59869910E+00 -1.51973982E+01  7.59869910E+00  7.59869910E+00
 -1.51973982E+01  7.59869910E+00  7.59869910E+00 -1.51973982E+01  7.59869910E+00
  7.59869910E+00 -1.51973982E+01  7.59869910E+00  7.59869910E+00 -1.51973982E+01
  7.59869910E+00  7.59869910E+00 -1.51973982E+01  7.59869910E+00  7.59869910E+00
 -1.51973982E+01  7.59869910E+00  7.59869910E+00 -1.51973982E+01  7.59869910E+00
  7.59869910E+00 -1.51973982E+01  7.59869910E+00  7.59869910E+00 -1.51973982E+01
  7.59869910E+00  7.59869910E+00 -1.51973982E+01  7.59869910E+00  7.59869910E+00
 -1.51973982E+01  7.59869910E+00  7.59869910E+00 -1.51973982E+01  7.59869910E+00
  7.59869910E+00 -1.51973982E+01  7.59869910E+00  7.59869910E+00 -1.51973982E+01
  7.59869910E+00  7.59869910E+00 -1.51973982E+01  7.59869910E+00  7.59869910E+00
 -1.51973982E+01  7.59869910E+00  7.59869910E+00 -1.51973982E+01  7.59869910E+00
  7.59869910E+00 -1.51973982E+01  7.59869910E+00  7.59869910E+00 -1.51973982E+01
  7.59869910E+00  7.59869910E+00 -1.51973982E+01  7.59869910E+00  7.59869910E+00
 -1.51973982E+01  7.59869910E+00  7.59869910E+00 -1.51973982E+01  7.59869910E+00
  7.59869910E+00 -1.51973982E+01  7.59869910E+00  7.59869910E+00 -1.51973982E+01
  7.59869910E+00  7.59869910E+00 -1.51973982E+01  7.59869910E+00  7.59869910E+00
 -1.51973982E+01  7.59869910E+00  7.59869910E+00 -1.51973982E+01  7.59869910E+00
  7.59869910E+00 -1.51973982E+01  7.59869910E+00  7.59869910E+00 -1.51973982E+01
  7.59869910E+00  7.59869910E+00 -1.51973982E+01  7.59869910E+00  7.59869910E+00
 -1.51973982E+01  7.59869910E+00  7.59869910E+00 -1.51973982E+01  7.59869910E+00
  7.59869910E+00 -1.51973982E+01  7.59869910E+00  7.59869910E+00 -1.51973982E+01
  7.59869910E+00  7.59869910E+00 -1.51973982E+01  7.59869910E+00  7.59869910E+00
 -1.51973982E+01  7.59869910E+00  7.59869910E+00 -1.51973982E+01  7.59869910E+00
  7.59869910E+00 -1.51973982E+01  7.59869910E+00  7.59869910E+00 -1.51973982E+01
  7.59869910E+00  7.59869910E+00 -1.51973982E+01  7.59869910E+00  7.59869910E+00
 -1.51973982E+01  7.59869910E+00  7.59869910E+00 -1.51973982E+01  7.59869910E+00
  7.59869910E+00 -1.51973982E+01  7.59869910E+00  7.59869910E+00 -1.51973982E+01
  7.59869910E+00  7.59869910E+00 -1.51973982E+01  7.59869910E+00  7.59869910E+00
 -1.51973982E+01  7.59869910E+00  7.59869910E+00 -1.51973982E+01  7.59869910E+00
  7.59869910E+00 -1.51973982E+01  7.59869910E+00  7.59869910E+00 -1.51973982E+01
  7.59869910E+00  7.59869910E+00 -1.51973982E+01  7.59869910E+00  7.59869910E+00
 -1.51973982E+01  7.59869910E+00  7.59869910E+00 -1.51973982E+01  7.59869910E+00
  7.59869910E+00 -1.51973982E+01  7.59869910E+00  7.59869910E+00 -1.51973982E+01
  7.59869910E+00  7.59869910E+00 -1.51973982E+01  7.59869910E+00  7.59869910E+00
 -1.51973982E+01  7.59869910E+00  7.59869910E+00 -1.51973982E+01  7.59869910E+00
  7.59869910E+00 -1.51973982E+01  7.59869910E+00  7.59869910E+00 -1.51973982E+01
  7.59869910E+00  7.59869910E+00 -1.51973982E+01  7.59869910E+00  7.59869910E+00
 -1.51973982E+01  7.59869910E+00  7.59869910E+00 -1.51973982E+01  7.59869910E+00
  7.59869910E+00 -1.51973982E+01  7.59869910E+00  7.59869910E+00 -1.51973982E+01
  7.59869910E+00  7.59869910E+00 -1.51973982E+01  7.59869910E+00  7.59869910E+00
 -1.51973982E+01  7.59869910E+00  7.59869910E+00 -1.51973982E+01  7.59869910E+00
  7.59869910E+00 -1.51973982E+01  7.59869910E+00  7.59869910E+00 -1.51973982E+01
  7.59869910E+00  7.59869910E+00 -1.51973982E+01  7.59869910E+00  7.59869910E+00
 -1.51973982E+01  7.59869910E+00  7.59869910E+00 -1.51973982E+01  7.59869910E+00
  7.59869910E+00 -1.51973982E+01  7.59869910E+00  7.59869910E+00 -1.51973982E+01
  7.59869910E+00  7.59869910E+00 -1.51973982E+01  7.59869910E+00  7.59869910E+00
 -1.51973982E+01  7.59869910E+00  7.59869910E+00 -1.51973982E+01  7.59869910E+00
  7.59869910E+00 -1.51973982E+01  7.59869910E+00  7.59869910E+00 -1.51973982E+01
  7.59869910E+00  7.59869910E+00 -1.51973982E+01  7.59869910E+00  7.59869910E+00
 -1.51973982E+01  7.59869910E+00  7.59869910E+00 -1.51973982E+01  7.59869910E+00
  7.59869910E+00 -1.51973982E+01  7.59869910E+00  7.59869910E+00 -1.51973982E+01
  7.59869910E+00  7.59869910E+00 -1.51973982E+01  7.59869910E+00  7.59869910E+00
 -1.51973982E+01  7.59869910E+00  7.59869910E+00 -1.51973982E+01  7.59869910E+00
  7.59869910E+00 -1.51973982E+01  7.59869910E+00  7.59869910E+00 -1.51973982E+01
  7.59869910E+00  7.59869910E+00 -1.51973982E+01  7.59869910E+00  7.59869910E+00
 -1.51973982E+01  7.59869910E+00  7.59869910E+00 -1.51973982E+01  7.59869910E+00
  7.59869910E+00 -1.51973982E+01  7.59869910E+00  7.59869910E+00 -1.51973982E+01
  7.59869910E+00  7.59869910E+00 -1.51973982E+01  7.59869910E+00  7.59869910E+00
 -1.51973982E+01  7.59869910E+00  7.59869910E+00 -1.51973982E+01  7.59869910E+00
  7.59869910E+00 -1.51973982E+01  7.59869910E+00  7.59869910E+00 -1.51973982E+01
  7.59869910E+00  7.59869910E+00 -1.51973982E+01  7.59869910E+00  7.59869910E+00
 -1.51973982E+01  7.59869910E+00  7.59869910E+00 -1.51973982E+01  7.59869910E+00
  7.59869910E+00 -1.51973982E+01  7.59869910E+00  7.59869910E+00 -1.51973982E+01
  7.59869910E+00  7.59869910E+00 -1.51973982E+01  7.59869910E+00  7.59869910E+00
 -1.51973982E+01  7.59869910E+00  7.59869910E+00 -1.51973982E+01  7.59869910E+00
  7.59869910E+00 -1.51973982E+01  7.59869910E+00  7.59869910E+00 -1.51973982E+01
  7.59869910E+00  7.59869910E+00 -1.51973982E+01  7.59869910E+00  7.59869910E+00
 -1.51973982E+01  7.59869910E+00  7.59869910E+00 -1.51973982E+01  7.59869910E+00
  7.59869910E+00 -1.51973982E+01  7.59869910E+00  7.59869910E+00 -1.51973982E+01
  7.59869910E+00  7.59869910E+00 -1.51973982E+01  7.59869910E+00  7.59869910E+00
 -1.51973982E+01  7.59869910E+00  7.59869910E+00 -1.51973982E+01  7.59869910E+00
  7.59869910E+00 -1.51973982E+01  7.59869910E+00  7.59869910E+00 -1.51973982E+01
  7.59869910E+00  7.59869910E+00 -1.51973982E+01  7.59869910E+00  7.59869910E+00
 -1.51973982E+01  7.59869910E+00  7.59869910E+00 -1.51973982E+01  7.59869910E+00
  7.59869910E+00 -1.51973982E+01  7.59869910E+00  7.59869910E+00 -1.51973982E+01
  7.59869910E+00  7.59869910E+00 -1.51973982E+01  7.59869910E+00  7.59869910E+00
 -1.51973982E+01  7.59869910E+00  7.59869910E+00 -1.51973982E+01  7.59869910E+00
  7.59869910E+00 -1.51973982E+01  7.59869910E+00  7.59869910E+00 -1.51973982E+01
  7.59869910E+00  7.59869910E+00 -1.51973982E+01  7.59869910E+00  7.59869910E+00
 -1.51973982E+01  7.59869910E+00  7.59869910E+00 -1.51973982E+01  7.59869910E+00
  7.59869910E+00 -1.51973982E+01  7.59869910E+00  7.59869910E+00 -1.51973982E+01
  7.59869910E+00  7.59869910E+00 -1.51973982E+01  7.59869910E+00  7.59869910E+00
 -1.51973982E+01  7.59869910E+00  7.59869910E+00 -1.51973982E+01  7.59869910E+00
  7.59869910E+00 -1.51973982E+01  7.59869910E+00  7.59869910E+00 -1.51973982E+01
  7.59869910E+00  7.59869910E+00 -1.51973982E+01  7.59869910E+00  7.59869910E+00
 -1.51973982E+01  7.59869910E+00  7.59869910E+00 -1.51973982E+01  7.59869910E+00
  7.59869910E+00 -1.51973982E+01  7.59869910E+00  7.59869910E+00 -1.51973982E+01
  7.59869910E+00  7.59869910E+00 -1.51973982E+01  7.59869910E+00  7.59869910E+00
 -1.51973982E+01  7.59869910E+00  7.59869910E+00 -1.51973982E+01  7.59869910E+00
  7.59869910E+00 -1.51973982E+01  7.59869910E+00  7.59869910E+00 -1.51973982E+01
  7.59869910E+00  7.59869910E+00 -1.51973982E+01  7.59869910E+00  7.59869910E+00
 -1.51973982E+01  7.59869910E+00  7.59869910E+00 -1.51973982E+01  7.59869910E+00
  7.59869910E+00 -1.51973982E+01  7.59869910E+00  7.59869910E+00 -1.51973982E+01
  7.59869910E+00  7.59869910E+00 -1.51973982E+01  7.59869910E+00  7.59869910E+00
 -1.51973982E+01  7.59869910E+00  7.59869910E+00 -1.51973982E+01  7.59869910E+00
  7.59869910E+00 -1.51973982E+01  7.59869910E+00  7.59869910E+00 -1.51973982E+01
  7.59869910E+00  7.59869910E+00 -1.51973982E+01  7.59869910E+00  7.59869910E+00
 -1.51973982E+01  7.59869910E+00  7.59869910E+00 -1.51973982E+01  7.59869910E+00
  7.59869910E+00 -1.51973982E+01  7.59869910E+00  7.59869910E+00 -1.51973982E+01
  7.59869910E+00  7.59869910E+00 -1.51973982E+01  7.59869910E+00  7.59869910E+00
 -1.51973982E+01  7.59869910E+00  7.59869910E+00 -1.51973982E+01  7.59869910E+00
  7.59869910E+00 -1.51973982E+01  7.59869910E+00  7.59869910E+00 -1.51973982E+01
  7.59869910E+00  7.59869910E+00 -1.51973982E+01  7.59869910E+00  7.59869910E+00
 -1.51973982E+01  7.59869910E+00  7.59869910E+00 -1.51973982E+01  7.59869910E+00
  7.59869910E+00 -1.51973982E+01  7.59869910E+00  7.59869910E+00 -1.51973982E+01
  7.59869910E+00  7.59869910E+00 -1.51973982E+01  7.59869910E+00  7.59869910E+00
 -1.51973982E+01  7.59869910E+00  7.59869910E+00 -1.51973982E+01  7.59869910E+00
  7.59869910E+00 -1.51973982E+01  7.59869910E+00  7.59869910E+00 -1.51973982E+01
  7.59869910E+00  7.59869910E+00 -1.51973982E+01  7.59869910E+00  7.59869910E+00
 -1.51973982E+01  7.59869910E+00  7.59869910E+00 -1.51973982E+01  7.59869910E+00
  7.59869910E+00 -1.51973982E+01  7.59869910E+00  7.59869910E+00 -1.51973982E+01
  7.59869910E+00  7.59869910E+00 -1.51973982E+01  7.59869910E+00  7.59869910E+00
 -1.51973982E+01  7.59869910E+00  7.59869910E+00 -1.51973982E+01  7.59869910E+00
  7.59869910E+00 -1.51973982E+01  7.59869910E+00  7.59869910E+00 -1.51973982E+01
  7.59869910E+00  7.59869910E+00 -1.51973982E+01  7.59869910E+00  7.59869910E+00
 -1.51973982E+01  7.59869910E+00  7.59869910E+00 -1.51973982E+01  7.59869910E+00
  7.59869910E+00 -1.51973982E+01  7.59869910E+00  7.59869910E+00 -1.51973982E+01
  7.59869910E+00  7.59869910E+00 -1.51973982E+01  7.59869910E+00  7.59869910E+00
 -1.51973982E+01  7.59869910E+00  7.59869910E+00 -1.51973982E+01  7.59869910E+00
  7.59869910E+00 -1.51973982E+01  7.59869910E+00  7.59869910E+00 -1.51973982E+01
  7.59869910E+00  7.59869910E+00 -1.51973982E+01  7.59869910E+00  7.59869910E+00
 -1.51973982E+01  7.59869910E+00  7.59869910E+00 -1.51973982E+01  7.59869910E+00
  7.59869910E+00 -1.51973982E+01  7.59869910E+00  7.59869910E+00 -1.51973982E+01
  7.59869910E+00  7.59869910E+00 -1.51973982E+01  7.59869910E+00  7.59869910E+00
 -1.51973982E+01  7.59869910E+00  7.59869910E+00 -1.51973982E+01  7.59869910E+00
  7.59869910E+00 -1.51973982E+01  7.59869910E+00  7.59869910E+00 -1.51973982E+01
  7.59869910E+00  7.59869910E+00 -1.51973982E+01  7.59869910E+00  7.59869910E+00
 -1.51973982E+01  7.59869910E+00  7.59869910E+00 -1.51973982E+01  7.59869910E+00
  7.59869910E+00 -1.51973982E+01  7.59869910E+00  7.59869910E+00 -1.51973982E+01
  7.59869910E+00  7.59869910E+00 -1.51973982E+01  7.59869910E+00  7.59869910E+00
 -1.51973982E+01  7.59869910E+00  7.59869910E+00 -1.51973982E+01  7.59869910E+00
  7.59869910E+00 -1.51973982E+01  7.59869910E+00  7.59869910E+00 -1.51973982E+01
  7.59869910E+00  7.59869910E+00 -1.51973982E+01  7.59869910E+00  7.59869910E+00
 -1.51973982E+01  7.59869910E+00  7.59869910E+00 -1.51973982E+01  7.59869910E+00
  7.59869910E+00 -1.51973982E+01  7.59869910E+00  7.59869910E+00 -1.51973982E+01
  7.59869910E+00  7.59869910E+00 -1.51973982E+01  7.59869910E+00  7.59869910E+00
 -1.51973982E+01  7.59869910E+00  7.59869910E+00 -1.51973982E+01  7.59869910E+00
  7.59869910E+00 -1.51973982E+01  7.59869910E+00  7.59869910E+00 -1.51973982E+01
  7.59869910E+00  7.59869910E+00 -1.51973982E+01  7.59869910E+00  7.59869910E+00
 -1.51973982E+01  7.59869910E+00  7.59869910E+00 -1.51973982E+01  7.59869910E+00
  7.59869910E+00 -1.51973982E+01  7.59869910E+00  7.59869910E+00 -1.51973982E+01
  7.59869910E+00  7.59869910E+00 -1.51973982E+01  7.59869910E+00  7.59869910E+00
 -1.51973982E+01  7.59869910E+00  7.59869910E+00 -1.51973982E+01  7.59869910E+00
  7.59869910E+00 -1.51973982E+01  7.59869910E+00  7.59869910E+00 -1.51973982E+01
  7.59869910E+00  7.59869910E+00 -1.51973982E+01  7.59869910E+00  7.59869910E+00
 -1.51973982E+01  7.59869910E+00  7.59869910E+00 -1.51973982E+01  7.59869910E+00
  7.59869910E+00 -1.51973982E+01  7.59869910E+00  7.59869910E+00 -1.51973982E+01
  7.59869910E+00  7.59869910E+00 -1.51973982E+01  7.59869910E+00  7.59869910E+00
 -1.51973982E+01  7.59869910E+00  7.59869910E+00 -1.51973982E+01  7.59869910E+00
  7.59869910E+00 -1.51973982E+01  7.59869910E+00  7.59869910E+00 -1.51973982E+01
  7.59869910E+00  7.59869910E+00 -1.51973982E+01  7.59869910E+00  7.59869910E+00
 -1.51973982E+01  7.59869910E+00  7.59869910E+00 -1.51973982E+01  7.59869910E+00
  7.59869910E+00 -1.51973982E+01  7.59869910E+00  7.59869910E+00 -1.51973982E+01
  7.59869910E+00  7.59869910E+00 -1.51973982E+01  7.59869910E+00  7.59869910E+00
 -1.51973982E+01  7.59869910E+00  7.59869910E+00 -1.51973982E+01  7.59869910E+00
  7.59869910E+00 -1.51973982E+01  7.59869910E+00  7.59869910E+00 -1.51973982E+01
  7.59869910E+00  7.59869910E+00 -1.51973982E+01  7.59869910E+00  7.59869910E+00
 -1.51973982E+01  7.59869910E+00  7.59869910E+00 -1.51973982E+01  7.59869910E+00
  7.59869910E+00 -1.51973982E+01  7.59869910E+00  7.59869910E+00 -1.51973982E+01
  7.59869910E+00  7.59869910E+00 -1.51973982E+01  7.59869910E+00  7.59869910E+00
 -1.51973982E+01  7.59869910E+00  7.59869910E+00 -1.51973982E+01  7.59869910E+00
  7.59869910E+00 -1.51973982E+01  7.59869910E+00  7.59869910E+00 -1.51973982E+01
  7.59869910E+00  7.59869910E+00 -1.51973982E+01  7.59869910E+00  7.59869910E+00
 -1.51973982E+01  7.59869910E+00  7.59869910E+00 -1.51973982E+01  7.59869910E+00
  7.59869910E+00 -1.51973982E+01  7.59869910E+00  7.59869910E+00 -1.51973982E+01
  7.59869910E+00  7.59869910E+00 -1.51973982E+01  7.59869910E+00  7.59869910E+00
 -1.51973982E+01  7.59869910E+00  7.59869910E+00 -1.51973982E+01  7.59869910E+00
  7.59869910E+00 -1.51973982E+01  7.59869910E+00  7.59869910E+00 -1.51973982E+01
  7.59869910E+00  7.59869910E+00 -1.51973982E+01  7.59869910E+00  7.59869910E+00
 -1.51973982E+01  7.59869910E+00  7.59869910E+00 -1.51973982E+01  7.59869910E+00
  7.59869910E+00 -1.51973982E+01  7.59869910E+00  7.59869910E+00 -1.51973982E+01
  7.59869910E+00  7.59869910E+00 -1.51973982E+01  7.59869910E+00  7.59869910E+00
 -1.51973982E+01  7.59869910E+00  7.59869910E+00 -1.51973982E+01  7.59869910E+00
  7.59869910E+00 -1.51973982E+01  7.59869910E+00  7.59869910E+00 -1.51973982E+01
  7.59869910E+00  7.59869910E+00 -1.51973982E+01  7.59869910E+00  7.59869910E+00
 -1.51973982E+01  7.59869910E+00  7.59869910E+00 -1.51973982E+01  7.59869910E+00
  7.59869910E+00 -1.51973982E+01  7.59869910E+00  7.59869910E+00 -1.51973982E+01
  7.59869910E+00  7.59869910E+00 -1.51973982E+01  7.59869910E+00  7.59869910E+00
 -1.51973982E+01  7.59869910E+00  7.59869910E+00 -1.51973982E+01  7.59869910E+00
  7.59869910E+00 -1.51973982E+01  7.59869910E+00  7.59869910E+00 -1.51973982E+01
  7.59869910E+00  7.59869910E+00 -1.51973982E+01  7.59869910E+00  7.59869910E+00
 -1.51973982E+01  7.59869910E+00  7.59869910E+00 -1.51973982E+01  7.59869910E+00
  7.59869910E+00 -1.51973982E+01  7.59869910E+00  7.59869910E+00 -1.51973982E+01
  7.59869910E+00  7.59869910E+00 -1.51973982E+01  7.59869910E+00  7.59869910E+00
 -1.51973982E+01  7.59869910E+00  7.59869910E+00 -1.51973982E+01  7.59869910E+00
  7.59869910E+00 -1.51973982E+01  7.59869910E+00  7.59869910E+00 -1.51973982E+01
  7.59869910E+00  7.59869910E+00 -1.51973982E+01  7.59869910E+00  7.59869910E+00
 -1.51973982E+01  7.59869910E+00  7.59869910E+00 -1.51973982E+01  7.59869910E+00
  7.59869910E+00 -1.51973982E+01  7.59869910E+00  7.59869910E+00 -1.51973982E+01
  7.59869910E+00  7.59869910E+00 -1.51973982E+01  7.59869910E+00  7.59869910E+00
 -1.51973982E+01  7.59869910E+00  7.59869910E+00 -1.51973982E+01  7.59869910E+00
  7.59869910E+00 -1.51973982E+01  7.59869910E+00  7.59869910E+00 -1.51973982E+01
  7.59869910E+00  7.59869910E+00 -1.51973982E+01  7.59869910E+00  7.59869910E+00
 -1.51973982E+01  7.59869910E+00  7.59869910E+00 -1.51973982E+01  7.59869910E+00
  7.59869910E+00 -1.51973982E+01  7.59869910E+00  7.59869910E+00 -1.51973982E+01
  7.59869910E+00  7.59869910E+00 -1.51973982E+01  7.59869910E+00  7.59869910E+00
 -1.51973982E+01  7.59869910E+00  7.59869910E+00 -1.51973982E+01  7.59869910E+00
  7.59869910E+00 -1.51973982E+01  7.59869910E+00  7.59869910E+00 -1.51973982E+01
  7.59869910E+00  7.59869910E+00 -1.51973982E+01  7.59869910E+00  7.59869910E+00
 -1.51973982E+01  7.59869910E+00  7.59869910E+00 -1.51973982E+01  7.59869910E+00
  7.59869910E+00 -1.51973982E+01  7.59869910E+00  7.59869910E+00 -1.51973982E+01
  7.59869910E+00  7.59869910E+00 -1.51973982E+01  7.59869910E+00  7.59869910E+00
 -1.51973982E+01  7.59869910E+00  7.59869910E+00 -1.51973982E+01  7.59869910E+00
  7.59869910E+00 -1.51973982E+01  7.59869910E+00  7.59869910E+00 -1.51973982E+01
  7.59869910E+00  7.59869910E+00 -1.51973982E+01  7.59869910E+00  7.59869910E+00
 -1.51973982E+01  7.59869910E+00  7.59869910E+00 -1.51973982E+01  7.59869910E+00
  7.59869910E+00 -1.51973982E+01  7.59869910E+00  7.59869910E+00 -1.51973982E+01
  7.59869910E+00  7.59869910E+00 -1.51973982E+01  7.59869910E+00  7.59869910E+00
 -1.51973982E+01  7.59869910E+00  7.59869910E+00 -1.51973982E+01  7.59869910E+00
  7.59869910E+00 -1.51973982E+01  7.59869910E+00  7.59869910E+00 -1.51973982E+01
  7.59869910E+00  7.59869910E+00 -1.51973982E+01  7.59869910E+00  7.59869910E+00
 -1.51973982E+01  7.59869910E+00  7.59869910E+00 -1.51973982E+01  7.59869910E+00
  7.59869910E+00 -1.51973982E+01  7.59869910E+00  7.59869910E+00 -1.51973982E+01
  7.59869910E+00  7.59869910E+00 -1.51973982E+01  7.59869910E+00  7.59869910E+00
 -1.51973982E+01  7.59869910E+00  7.59869910E+00 -1.51973982E+01  7.59869910E+00
  7.59869910E+00 -1.51973982E+01  7.59869910E+00  7.59869910E+00 -1.51973982E+01
  7.59869910E+00  7.59869910E+00 -1.51973982E+01  7.59869910E+00  7.59869910E+00
 -1.51973982E+01  7.59869910E+00  7.59869910E+00 -1.51973982E+01  7.59869910E+00
  7.59869910E+00 -1.51973982E+01  7.59869910E+00  7.59869910E+00 -1.51973982E+01
  7.59869910E+00  7.59869910E+00 -1.51973982E+01  7.59869910E+00  7.59869910E+00
 -1.51973982E+01  7.59869910E+00  7.59869910E+00 -1.51973982E+01  7.59869910E+00
  7.59869910E+00 -1.51973982E+01  7.59869910E+00  7.59869910E+00 -1.51973982E+01
  7.59869910E+00  7.59869910E+00 -1.51973982E+01  7.59869910E+00  7.59869910E+00
 -1.51973982E+01  7.59869910E+00  7.59869910E+00 -1.51973982E+01  7.59869910E+00
  7.59869910E+00 -1.51973982E+01  7.59869910E+00  7.59869910E+00 -1.51973982E+01
  7.59869910E+00  7.59869910E+00 -1.51973982E+01  7.59869910E+00  7.59869910E+00
 -1.51973982E+01  7.59869910E+00  7.59869910E+00 -1.51973982E+01  7.59869910E+00
  7.59869910E+00 -1.51973982E+01  7.59869910E+00  7.59869910E+00 -1.51973982E+01
  7.59869910E+00  7.59869910E+00 -1.51973982E+01  7.59869910E+00  7.59869910E+00
 -1.51973982E+01  7.59869910E+00  7.59869910E+00 -1.51973982E+01  7.59869910E+00
  7.59869910E+00 -1.51973982E+01  7.59869910E+00  7.59869910E+00 -1.51973982E+01
  7.59869910E+00  7.59869910E+00 -1.51973982E+01  7.59869910E+00  7.59869910E+00
 -1.51973982E+01  7.59869910E+00  7.59869910E+00 -1.51973982E+01  7.59869910E+00
  7.59869910E+00 -1.51973982E+01  7.59869910E+00  7.59869910E+00 -1.51973982E+01
  7.59869910E+00  7.59869910E+00 -1.51973982E+01  7.59869910E+00  7.59869910E+00
 -1.51973982E+01  7.59869910E+00  7.59869910E+00 -1.51973982E+01  7.59869910E+00
  7.59869910E+00 -1.51973982E+01  7.59869910E+00  7.59869910E+00 -1.51973982E+01
  7.59869910E+00  7.59869910E+00 -1.51973982E+01  7.59869910E+00  7.59869910E+00
 -1.51973982E+01  7.59869910E+00  7.59869910E+00 -1.51973982E+01  7.59869910E+00
  7.59869910E+00 -1.51973982E+01  7.59869910E+00  7.59869910E+00 -1.51973982E+01
  7.59869910E+00  7.59869910E+00 -1.51973982E+01  7.59869910E+00  7.59869910E+00
 -1.51973982E+01  7.59869910E+00  7.59869910E+00 -1.51973982E+01  7.59869910E+00
  7.59869910E+00 -1.51973982E+01  7.59869910E+00  7.59869910E+00 -1.51973982E+01
  7.59869910E+00  7.59869910E+00 -1.51973982E+01  7.59869910E+00  7.59869910E+00
 -1.51973982E+01  7.59869910E+00  7.59869910E+00 -1.51973982E+01  7.59869910E+00
  7.59869910E+00 -1.51973982E+01  7.59869910E+00  7.59869910E+00 -1.51973982E+01
  7.59869910E+00  7.59869910E+00 -1.51973982E+01  7.59869910E+00  7.59869910E+00
 -1.51973982E+01  7.59869910E+00  7.59869910E+00 -1.51973982E+01  7.59869910E+00
  7.59869910E+00 -1.51973982E+01  7.59869910E+00  7.59869910E+00 -1.51973982E+01
  7.59869910E+00  7.59869910E+00 -1.51973982E+01  7.59869910E+00  7.59869910E+00
 -1.51973982E+01  7.59869910E+00  7.59869910E+00 -1.51973982E+01  7.59869910E+00
  7.59869910E+00 -1.51973982E+01  7.59869910E+00  7.59869910E+00 -1.51973982E+01
  7.59869910E+00  7.59869910E+00 -1.51973982E+01  7.59869910E+00  7.59869910E+00
 -1.51973982E+01  7.59869910E+00  7.59869910E+00 -1.51973982E+01  7.59869910E+00
  7.59869910E+00 -1.51973982E+01  7.59869910E+00  7.59869910E+00 -1.51973982E+01
  7.59869910E+00  7.59869910E+00 -1.51973982E+01  7.59869910E+00  7.59869910E+00
 -1.51973982E+01  7.59869910E+00  7.59869910E+00 -1.51973982E+01  7.59869910E+00
  7.59869910E+00 -1.51973982E+01  7.59869910E+00  7.59869910E+00 -1.51973982E+01
  7.59869910E+00  7.59869910E+00 -1.51973982E+01  7.59869910E+00  7.59869910E+00
 -1.51973982E+01  7.59869910E+00  7.59869910E+00 -1.51973982E+01  7.59869910E+00
  7.59869910E+00 -1.51973982E+01  7.59869910E+00  7.59869910E+00 -1.51973982E+01
  7.59869910E+00  7.59869910E+00 -1.51973982E+01  7.59869910E+00  7.59869910E+00
 -1.51973982E+01  7.59869910E+00  7.59869910E+00 -1.51973982E+01  7.59869910E+00
  7.59869910E+00 -1.51973982E+01  7.59869910E+00  7.59869910E+00 -1.51973982E+01
  7.59869910E+00  7.59869910E+00 -1.51973982E+01  7.59869910E+00  7.59869910E+00
 -1.51973982E+01  7.59869910E+00  7.59869910E+00 -1.51973982E+01  7.59869910E+00
  7.59869910E+00 -1.51973982E+01  7.59869910E+00  7.59869910E+00 -1.51973982E+01
  7.59869910E+00  7.59869910E+00 -1.51973982E+01  7.59869910E+00  7.59869910E+00
 -1.51973982E+01  7.59869910E+00  7.59869910E+00 -1.51973982E+01  7.59869910E+00
  7.59869910E+00 -1.51973982E+01  7.59869910E+00  7.59869910E+00 -1.51973982E+01
  7.59869910E+00  7.59869910E+00 -1.51973982E+01  7.59869910E+00  7.59869910E+00
 -1.51973982E+01  7.59869910E+00  7.59869910E+00 -1.51973982E+01  7.59869910E+00
  7.59869910E+00 -1.51973982E+01  7.59869910E+00  7.59869910E+00 -1.51973982E+01
  7.59869910E+00  7.59869910E+00 -1.51973982E+01  7.59869910E+00  7.59869910E+00
 -1.51973982E+01  7.59869910E+00  7.59869910E+00 -1.51973982E+01  7.59869910E+00
  7.59869910E+00 -1.51973982E+01  7.59869910E+00  7.59869910E+00 -1.51973982E+01
  7.59869910E+00  7.59869910E+00 -1.51973982E+01  7.59869910E+00  7.59869910E+00
 -1.51973982E+01  7.59869910E+00  7.59869910E+00 -1.51973982E+01  7.59869910E+00
  7.59869910E+00 -1.51973982E+01  7.59869910E+00  7.59869910E+00 -1.51973982E+01
  7.59869910E+00  7.59869910E+00 -1.51973982E+01  7.59869910E+00  7.59869910E+00
 -1.51973982E+01  7.59869910E+00  7.59869910E+00 -1.51973982E+01  7.59869910E+00
  7.59869910E+00 -1.51973982E+01  7.59869910E+00  7.59869910E+00 -1.51973982E+01
  7.59869910E+00  7.59869910E+00 -1.51973982E+01  7.59869910E+00  7.59869910E+00
 -1.51973982E+01  7.59869910E+00  7.59869910E+00 -1.51973982E+01  7.59869910E+00
  7.59869910E+00 -1.51973982E+01  7.59869910E+00  7.59869910E+00 -1.51973982E+01
  7.59869910E+00  7.59869910E+00 -1.51973982E+01  7.59869910E+00  7.59869910E+00
 -1.51973982E+01  7.59869910E+00  7.59869910E+00 -1.51973982E+01  7.59869910E+00
  7.59869910E+00 -1.51973982E+01  7.59869910E+00  7.59869910E+00 -1.51973982E+01
  7.59869910E+00  7.59869910E+00 -1.51973982E+01  7.59869910E+00  7.59869910E+00
 -1.51973982E+01  7.59869910E+00  7.59869910E+00 -1.51973982E+01  7.59869910E+00
  7.59869910E+00 -1.51973982E+01  7.59869910E+00  7.59869910E+00 -1.51973982E+01
  7.59869910E+00  7.59869910E+00 -1.51973982E+01  7.59869910E+00  7.59869910E+00
 -1.51973982E+01  7.59869910E+00  7.59869910E+00 -1.51973982E+01  7.59869910E+00
  7.59869910E+00 -1.51973982E+01  7.59869910E+00  7.59869910E+00 -1.51973982E+01
  7.59869910E+00  7.59869910E+00 -1.51973982E+01  7.59869910E+00  7.59869910E+00
 -1.51973982E+01  7.59869910E+00  7.59869910E+00 -1.51973982E+01  7.59869910E+00
  7.59869910E+00 -1.51973982E+01  7.59869910E+00  7.59869910E+00 -1.51973982E+01
  7.59869910E+00  7.59869910E+00 -1.51973982E+01  7.59869910E+00  7.59869910E+00
 -1.51973982E+01  7.59869910E+00  7.59869910E+00 -1.51973982E+01  7.59869910E+00
  7.59869910E+00 -1.51973982E+01  7.59869910E+00  7.59869910E+00 -1.51973982E+01
  7.59869910E+00  7.59869910E+00 -1.51973982E+01  7.59869910E+00  7.59869910E+00
 -1.51973982E+01  7.59869910E+00  7.59869910E+00 -1.51973982E+01  7.59869910E+00
  7.59869910E+00 -1.51973982E+01  7.59869910E+00  7.59869910E+00 -1.51973982E+01
  7.59869910E+00  7.59869910E+00 -1.51973982E+01  7.59869910E+00  7.59869910E+00
 -1.51973982E+01  7.59869910E+00  7.59869910E+00 -1.51973982E+01  7.59869910E+00
  7.59869910E+00 -1.51973982E+01  7.59869910E+00  7.59869910E+00 -1.51973982E+01
  7.59869910E+00  7.59869910E+00 -1.51973982E+01  7.59869910E+00  7.59869910E+00
 -1.51973982E+01  7.59869910E+00  7.59869910E+00 -1.51973982E+01  7.59869910E+00
  7.59869910E+00 -1.51973982E+01  7.59869910E+00  7.59869910E+00 -1.51973982E+01
  7.59869910E+00  7.59869910E+00 -1.51973982E+01  7.59869910E+00  7.59869910E+00
 -1.51973982E+01  7.59869910E+00  7.59869910E+00 -1.51973982E+01  7.59869910E+00
  7.59869910E+00 -1.51973982E+01  7.59869910E+00  7.59869910E+00 -1.51973982E+01
  7.59869910E+00  7.59869910E+00 -1.51973982E+01  7.59869910E+00  7.59869910E+00
 -1.51973982E+01  7.59869910E+00  7.59869910E+00 -1.51973982E+01  7.59869910E+00
  7.59869910E+00 -1.51973982E+01  7.59869910E+00  7.59869910E+00 -1.51973982E+01
  7.59869910E+00  7.59869910E+00 -1.51973982E+01  7.59869910E+00  7.59869910E+00
 -1.51973982E+01  7.59869910E+00  7.59869910E+00 -1.51973982E+01  7.59869910E+00
  7.59869910E+00 -1.51973982E+01  7.59869910E+00  7.59869910E+00 -1.51973982E+01
  7.59869910E+00  7.59869910E+00 -1.51973982E+01  7.59869910E+00  7.59869910E+00
 -1.51973982E+01  7.59869910E+00  7.59869910E+00 -1.51973982E+01  7.59869910E+00
  7.59869910E+00 -1.51973982E+01  7.59869910E+00  7.59869910E+00 -1.51973982E+01
  7.59869910E+00  7.59869910E+00 -1.51973982E+01  7.59869910E+00  7.59869910E+00
 -1.51973982E+01  7.59869910E+00  7.59869910E+00 -1.51973982E+01  7.59869910E+00
  7.59869910E+00 -1.51973982E+01  7.59869910E+00  7.59869910E+00 -1.51973982E+01
  7.59869910E+00  7.59869910E+00 -1.51973982E+01  7.59869910E+00  7.59869910E+00
 -1.51973982E+01  7.59869910E+00  7.59869910E+00 -1.51973982E+01  7.59869910E+00
  7.59869910E+00 -1.51973982E+01  7.59869910E+00  7.59869910E+00 -1.51973982E+01
  7.59869910E+00  7.59869910E+00 -1.51973982E+01  7.59869910E+00  7.59869910E+00
 -1.51973982E+01  7.59869910E+00  7.59869910E+00 -1.51973982E+01  7.59869910E+00
  7.59869910E+00 -1.51973982E+01  7.59869910E+00  7.59869910E+00 -1.51973982E+01
  7.59869910E+00  7.59869910E+00 -1.51973982E+01  7.59869910E+00  7.59869910E+00
 -1.51973982E+01  7.59869910E+00  7.59869910E+00 -1.51973982E+01  7.59869910E+00
  7.59869910E+00 -1.51973982E+01  7.59869910E+00  7.59869910E+00 -1.51973982E+01
  7.59869910E+00  7.59869910E+00 -1.51973982E+01  7.59869910E+00  7.59869910E+00
 -1.51973982E+01  7.59869910E+00  7.59869910E+00 -1.51973982E+01  7.59869910E+00
  7.59869910E+00 -1.51973982E+01  7.59869910E+00  7.59869910E+00 -1.51973982E+01
  7.59869910E+00  7.59869910E+00 -1.51973982E+01  7.59869910E+00  7.59869910E+00
 -1.51973982E+01  7.59869910E+00  7.59869910E+00 -1.51973982E+01  7.59869910E+00
  7.59869910E+00 -1.51973982E+01  7.59869910E+00  7.59869910E+00 -1.51973982E+01
  7.59869910E+00  7.59869910E+00 -1.51973982E+01  7.59869910E+00  7.59869910E+00
 -1.51973982E+01  7.59869910E+00  7.59869910E+00 -1.51973982E+01  7.59869910E+00
  7.59869910E+00 -1.51973982E+01  7.59869910E+00  7.59869910E+00 -1.51973982E+01
  7.59869910E+00  7.59869910E+00 -1.51973982E+01  7.59869910E+00  7.59869910E+00
 -1.51973982E+01  7.59869910E+00  7.59869910E+00 -1.51973982E+01  7.59869910E+00
  7.59869910E+00 -1.51973982E+01  7.59869910E+00  7.59869910E+00 -1.51973982E+01
  7.59869910E+00  7.59869910E+00 -1.51973982E+01  7.59869910E+00  7.59869910E+00
 -1.51973982E+01  7.59869910E+00  7.59869910E+00 -1.51973982E+01  7.59869910E+00
  7.59869910E+00 -1.51973982E+01  7.59869910E+00  7.59869910E+00 -1.51973982E+01
  7.59869910E+00  7.59869910E+00 -1.51973982E+01  7.59869910E+00  7.59869910E+00
 -1.51973982E+01  7.59869910E+00  7.59869910E+00 -1.51973982E+01  7.59869910E+00
  7.59869910E+00 -1.51973982E+01  7.59869910E+00  7.59869910E+00 -1.51973982E+01
  7.59869910E+00  7.59869910E+00 -1.51973982E+01  7.59869910E+00  7.59869910E+00
 -1.51973982E+01  7.59869910E+00  7.59869910E+00 -1.51973982E+01  7.59869910E+00
  7.59869910E+00 -1.51973982E+01  7.59869910E+00  7.59869910E+00 -1.51973982E+01
  7.59869910E+00  7.59869910E+00 -1.51973982E+01  7.59869910E+00  7.59869910E+00
 -1.51973982E+01  7.59869910E+00  7.59869910E+00 -1.51973982E+01  7.59869910E+00
  7.59869910E+00 -1.51973982E+01  7.59869910E+00  7.59869910E+00 -1.51973982E+01
  7.59869910E+00  7.59869910E+00 -1.51973982E+01  7.59869910E+00  7.59869910E+00
 -1.51973982E+01  7.59869910E+00  7.59869910E+00 -1.51973982E+01  7.59869910E+00
  7.59869910E+00 -1.51973982E+01  7.59869910E+00  7.59869910E+00 -1.51973982E+01
  7.59869910E+00  7.59869910E+00 -1.51973982E+01  7.59869910E+00  7.59869910E+00
 -1.51973982E+01  7.59869910E+00  7.59869910E+00 -1.51973982E+01  7.59869910E+00
  7.59869910E+00 -1.51973982E+01  7.59869910E+00  7.59869910E+00 -1.51973982E+01
  7.59869910E+00  7.59869910E+00 -1.51973982E+01  7.59869910E+00  7.59869910E+00
 -1.51973982E+01  7.59869910E+00  7.59869910E+00 -1.51973982E+01  7.59869910E+00
  7.59869910E+00 -1.51973982E+01  7.59869910E+00  7.59869910E+00 -1.51973982E+01
  7.59869910E+00  7.59869910E+00 -1.51973982E+01  7.59869910E+00  7.59869910E+00
 -1.51973982E+01  7.59869910E+00  7.59869910E+00 -1.51973982E+01  7.59869910E+00
  7.59869910E+00 -1.51973982E+01  7.59869910E+00  7.59869910E+00 -1.51973982E+01
  7.59869910E+00  7.59869910E+00 -1.51973982E+01  7.59869910E+00  7.59869910E+00
 -1.51973982E+01  7.59869910E+00  7.59869910E+00 -1.51973982E+01  7.59869910E+00
  7.59869910E+00 -1.51973982E+01  7.59869910E+00  7.59869910E+00 -1.51973982E+01
  7.59869910E+00  7.59869910E+00 -1.51973982E+01  7.59869910E+00  7.59869910E+00
 -1.51973982E+01  7.59869910E+00  7.59869910E+00 -1.51973982E+01  7.59869910E+00
  7.59869910E+00 -1.51973982E+01  7.59869910E+00  7.59869910E+00 -1.51973982E+01
  7.59869910E+00  7.59869910E+00 -1.51973982E+01  7.59869910E+00  7.59869910E+00
 -1.51973982E+01  7.59869910E+00  7.59869910E+00 -1.51973982E+01  7.59869910E+00
  7.59869910E+00 -1.51973982E+01  7.59869910E+00  7.59869910E+00 -1.51973982E+01
  7.59869910E+00  7.59869910E+00 -1.51973982E+01  7.59869910E+00  7.59869910E+00
 -1.51973982E+01  7.59869910E+00  7.59869910E+00 -1.51973982E+01  7.59869910E+00
  7.59869910E+00 -1.51973982E+01  7.59869910E+00  7.59869910E+00 -1.51973982E+01
  7.59869910E+00  7.59869910E+00 -1.51973982E+01  7.59869910E+00  7.59869910E+00
 -1.51973982E+01  7.59869910E+00  7.59869910E+00 -1.51973982E+01  7.59869910E+00
  7.59869910E+00 -1.51973982E+01  7.59869910E+00  7.59869910E+00 -1.51973982E+01
  7.59869910E+00  7.59869910E+00 -1.51973982E+01  7.59869910E+00  7.59869910E+00
 -1.51973982E+01  7.59869910E+00  7.59869910E+00 -1.51973982E+01  7.59869910E+00
  7.59869910E+00 -1.51973982E+01  7.59869910E+00  7.59869910E+00 -1.51973982E+01
  7.59869910E+00  7.59869910E+00 -1.51973982E+01  7.59869910E+00  7.59869910E+00
 -1.51973982E+01  7.59869910E+00  7.59869910E+00 -1.51973982E+01  7.59869910E+00
  7.59869910E+00 -1.51973982E+01  7.59869910E+00  7.59869910E+00 -1.51973982E+01
  7.59869910E+00  7.59869910E+00 -1.51973982E+01  7.59869910E+00  7.59869910E+00
 -1.51973982E+01  7.59869910E+00  7.59869910E+00 -1.51973982E+01  7.59869910E+00
  7.59869910E+00 -1.51973982E+01  7.59869910E+00  7.59869910E+00 -1.51973982E+01
  7.59869910E+00  7.59869910E+00 -1.51973982E+01  7.59869910E+00  7.59869910E+00
 -1.51973982E+01  7.59869910E+00  7.59869910E+00 -1.51973982E+01  7.59869910E+00
  7.59869910E+00 -1.51973982E+01  7.59869910E+00  7.59869910E+00 -1.51973982E+01
  7.59869910E+00  7.59869910E+00 -1.51973982E+01  7.59869910E+00  7.59869910E+00
 -1.51973982E+01  7.59869910E+00  7.59869910E+00 -1.51973982E+01  7.59869910E+00
  7.59869910E+00 -1.51973982E+01  7.59869910E+00  7.59869910E+00 -1.51973982E+01
  7.59869910E+00  7.59869910E+00 -1.51973982E+01  7.59869910E+00  7.59869910E+00
 -1.51973982E+01  7.59869910E+00  7.59869910E+00 -1.51973982E+01  7.59869910E+00
  7.59869910E+00 -1.51973982E+01  7.59869910E+00  7.59869910E+00 -1.51973982E+01
  7.59869910E+00  7.59869910E+00 -1.51973982E+01  7.59869910E+00  7.59869910E+00
 -1.51973982E+01  7.59869910E+00  7.59869910E+00 -1.51973982E+01  7.59869910E+00
  7.59869910E+00 -1.51973982E+01  7.59869910E+00  7.59869910E+00 -1.51973982E+01
  7.59869910E+00  7.59869910E+00 -1.51973982E+01  7.59869910E+00  7.59869910E+00
 -1.51973982E+01  7.59869910E+00  7.59869910E+00 -1.51973982E+01  7.59869910E+00
  7.59869910E+00 -1.51973982E+01  7.59869910E+00  7.59869910E+00 -1.51973982E+01
  7.59869910E+00  7.59869910E+00 -1.51973982E+01  7.59869910E+00  7.59869910E+00
 -1.51973982E+01  7.59869910E+00  7.59869910E+00 -1.51973982E+01  7.59869910E+00
  7.59869910E+00 -1.51973982E+01  7.59869910E+00  7.59869910E+00 -1.51973982E+01
  7.59869910E+00  7.59869910E+00 -1.51973982E+01  7.59869910E+00  7.59869910E+00
 -1.51973982E+01  7.59869910E+00  7.59869910E+00 -1.51973982E+01  7.59869910E+00
  7.59869910E+00 -1.51973982E+01  7.59869910E+00  7.59869910E+00 -1.51973982E+01
  7.59869910E+00  7.59869910E+00 -1.51973982E+01  7.59869910E+00  7.59869910E+00
 -1.51973982E+01  7.59869910E+00  7.59869910E+00 -1.51973982E+01  7.59869910E+00
  7.59869910E+00 -1.51973982E+01  7.59869910E+00  7.59869910E+00 -1.51973982E+01
  7.59869910E+00  7.59869910E+00 -1.51973982E+01  7.59869910E+00  7.59869910E+00
 -1.51973982E+01  7.59869910E+00  7.59869910E+00 -1.51973982E+01  7.59869910E+00
  7.59869910E+00 -1.51973982E+01  7.59869910E+00  7.59869910E+00 -1.51973982E+01
  7.59869910E+00  7.59869910E+00 -1.51973982E+01  7.59869910E+00  7.59869910E+00
 -1.51973982E+01  7.59869910E+00  7.59869910E+00 -1.51973982E+01  7.59869910E+00
  7.59869910E+00 -1.51973982E+01  7.59869910E+00  7.59869910E+00 -1.51973982E+01
  7.59869910E+00  7.59869910E+00 -1.51973982E+01  7.59869910E+00  7.59869910E+00
 -1.51973982E+01  7.59869910E+00  7.59869910E+00 -1.51973982E+01  7.59869910E+00
  7.59869910E+00 -1.51973982E+01  7.59869910E+00  7.59869910E+00 -1.51973982E+01
  7.59869910E+00  7.59869910E+00 -1.51973982E+01  7.59869910E+00  7.59869910E+00
 -1.51973982E+01  7.59869910E+00  7.59869910E+00 -1.51973982E+01  7.59869910E+00
  7.59869910E+00 -1.51973982E+01  7.59869910E+00  7.59869910E+00 -1.51973982E+01
  7.59869910E+00  7.59869910E+00 -1.51973982E+01  7.59869910E+00  7.59869910E+00
 -1.51973982E+01  7.59869910E+00  7.59869910E+00 -1.51973982E+01  7.59869910E+00
  7.59869910E+00 -1.51973982E+01  7.59869910E+00  7.59869910E+00 -1.51973982E+01
  7.59869910E+00  7.59869910E+00 -1.51973982E+01  7.59869910E+00  7.59869910E+00
 -1.51973982E+01  7.59869910E+00  7.59869910E+00 -1.51973982E+01  7.59869910E+00
  7.59869910E+00 -1.51973982E+01  7.59869910E+00  7.59869910E+00 -1.51973982E+01
  7.59869910E+00  7.59869910E+00 -1.51973982E+01  7.59869910E+00  7.59869910E+00
 -1.51973982E+01  7.59869910E+00  7.59869910E+00 -1.51973982E+01  7.59869910E+00
  7.59869910E+00 -1.51973982E+01  7.59869910E+00  7.59869910E+00 -1.51973982E+01
  7.59869910E+00  7.59869910E+00 -1.51973982E+01  7.59869910E+00  7.59869910E+00
 -1.51973982E+01  7.59869910E+00  7.59869910E+00 -1.51973982E+01  7.59869910E+00
  7.59869910E+00 -1.51973982E+01  7.59869910E+00  7.59869910E+00 -1.51973982E+01
  7.59869910E+00  7.59869910E+00 -1.51973982E+01  7.59869910E+00  7.59869910E+00
 -1.51973982E+01  7.59869910E+00  7.59869910E+00 -1.51973982E+01  7.59869910E+00
  7.59869910E+00 -1.51973982E+01  7.59869910E+00  7.59869910E+00 -1.51973982E+01
  7.59869910E+00  7.59869910E+00 -1.51973982E+01  7.59869910E+00  7.59869910E+00
 -1.51973982E+01  7.59869910E+00  7.59869910E+00 -1.51973982E+01  7.59869910E+00
  7.59869910E+00 -1.51973982E+01  7.59869910E+00  7.59869910E+00 -1.51973982E+01
  7.59869910E+00  7.59869910E+00 -1.51973982E+01  7.59869910E+00  7.59869910E+00
 -1.51973982E+01  7.59869910E+00  7.59869910E+00 -1.51973982E+01  7.59869910E+00
  7.59869910E+00 -1.51973982E+01  7.59869910E+00  7.59869910E+00 -1.51973982E+01
  7.59869910E+00  7.59869910E+00 -1.51973982E+01  7.59869910E+00  7.59869910E+00
 -1.51973982E+01  7.59869910E+00  7.59869910E+00 -1.51973982E+01  7.59869910E+00
  7.59869910E+00 -1.51973982E+01  7.59869910E+00  7.59869910E+00 -1.51973982E+01
  7.59869910E+00  7.59869910E+00 -1.51973982E+01  7.59869910E+00  7.59869910E+00
 -1.51973982E+01  7.59869910E+00  7.59869910E+00 -1.51973982E+01  7.59869910E+00
  7.59869910E+00 -1.51973982E+01  7.59869910E+00  7.59869910E+00 -1.51973982E+01
  7.59869910E+00  7.59869910E+00 -1.51973982E+01  7.59869910E+00  7.59869910E+00
 -1.51973982E+01  7.59869910E+00  7.59869910E+00 -1.51973982E+01  7.59869910E+00
  7.59869910E+00 -1.51973982E+01  7.59869910E+00  7.59869910E+00 -1.51973982E+01
  7.59869910E+00  7.59869910E+00 -1.51973982E+01  7.59869910E+00  7.59869910E+00
 -1.51973982E+01  7.59869910E+00  7.59869910E+00 -1.51973982E+01  7.59869910E+00
  7.59869910E+00 -1.51973982E+01  7.59869910E+00  7.59869910E+00 -1.51973982E+01
  7.59869910E+00  7.59869910E+00 -1.51973982E+01  7.59869910E+00  7.59869910E+00
 -1.51973982E+01  7.59869910E+00  7.59869910E+00 -1.51973982E+01  7.59869910E+00
  7.59869910E+00 -1.51973982E+01  7.59869910E+00  7.59869910E+00 -1.51973982E+01
  7.59869910E+00  7.59869910E+00 -1.51973982E+01  7.59869910E+00  7.59869910E+00
 -1.51973982E+01  7.59869910E+00  7.59869910E+00 -1.51973982E+01  7.59869910E+00
  7.59869910E+00 -1.51973982E+01  7.59869910E+00  7.59869910E+00 -1.51973982E+01
  7.59869910E+00  7.59869910E+00 -1.51973982E+01  7.59869910E+00  7.59869910E+00
 -1.51973982E+01  7.59869910E+00  7.59869910E+00 -1.51973982E+01  7.59869910E+00
  7.59869910E+00 -1.51973982E+01  7.59869910E+00  7.59869910E+00 -1.51973982E+01
  7.59869910E+00  7.59869910E+00 -1.51973982E+01  7.59869910E+00  7.59869910E+00
 -1.51973982E+01  7.59869910E+00  7.59869910E+00 -1.51973982E+01  7.59869910E+00
  7.59869910E+00 -1.51973982E+01  7.59869910E+00  7.59869910E+00 -1.51973982E+01
  7.59869910E+00  7.59869910E+00 -1.51973982E+01  7.59869910E+00  7.59869910E+00
 -1.51973982E+01  7.59869910E+00  7.59869910E+00 -1.51973982E+01  7.59869910E+00
  7.59869910E+00 -1.51973982E+01  7.59869910E+00  7.59869910E+00 -1.51973982E+01
  7.59869910E+00  7.59869910E+00 -1.51973982E+01  7.59869910E+00  7.59869910E+00
 -1.51973982E+01  7.59869910E+00  7.59869910E+00 -1.51973982E+01  7.59869910E+00
  7.59869910E+00 -1.51973982E+01  7.59869910E+00  7.59869910E+00 -1.51973982E+01
  7.59869910E+00  7.59869910E+00 -1.51973982E+01  7.59869910E+00  7.59869910E+00
 -1.51973982E+01  7.59869910E+00  7.59869910E+00 -1.51973982E+01  7.59869910E+00
  7.59869910E+00 -1.51973982E+01  7.59869910E+00  7.59869910E+00 -1.51973982E+01
  7.59869910E+00  7.59869910E+00 -1.51973982E+01  7.59869910E+00  7.59869910E+00
 -1.51973982E+01  7.59869910E+00  7.59869910E+00 -1.51973982E+01  7.59869910E+00
  7.59869910E+00 -1.51973982E+01  7.59869910E+00  7.59869910E+00 -1.51973982E+01
  7.59869910E+00  7.59869910E+00 -1.51973982E+01  7.59869910E+00  7.59869910E+00
 -1.51973982E+01  7.59869910E+00  7.59869910E+00 -1.51973982E+01  7.59869910E+00
  7.59869910E+00 -1.51973982E+01  7.59869910E+00  7.59869910E+00 -1.51973982E+01
  7.59869910E+00  7.59869910E+00 -1.51973982E+01  7.59869910E+00  7.59869910E+00
 -1.51973982E+01  7.59869910E+00  7.59869910E+00 -1.51973982E+01  7.59869910E+00
  7.59869910E+00 -1.51973982E+01  7.59869910E+00  7.59869910E+00 -1.51973982E+01
  7.59869910E+00  7.59869910E+00 -1.51973982E+01  7.59869910E+00  7.59869910E+00
 -1.51973982E+01  7.59869910E+00  7.59869910E+00 -1.51973982E+01  7.59869910E+00
  7.59869910E+00 -1.51973982E+01  7.59869910E+00  7.59869910E+00 -1.51973982E+01
  7.59869910E+00  7.59869910E+00 -1.51973982E+01  7.59869910E+00  7.59869910E+00
 -1.51973982E+01  7.59869910E+00  7.59869910E+00 -1.51973982E+01  7.59869910E+00
  7.59869910E+00 -1.51973982E+01  7.59869910E+00  7.59869910E+00 -1.51973982E+01
  7.59869910E+00  7.59869910E+00 -1.51973982E+01  7.59869910E+00  7.59869910E+00
 -1.51973982E+01  7.59869910E+00  7.59869910E+00 -1.51973982E+01  7.59869910E+00
  7.59869910E+00 -1.51973982E+01  7.59869910E+00  7.59869910E+00 -1.51973982E+01
  7.59869910E+00  7.59869910E+00 -1.51973982E+01  7.59869910E+00  7.59869910E+00
 -1.51973982E+01  7.59869910E+00  7.59869910E+00 -1.51973982E+01  7.59869910E+00
  7.59869910E+00 -1.51973982E+01  7.59869910E+00  7.59869910E+00 -1.51973982E+01
  7.59869910E+00  7.59869910E+00 -1.51973982E+01  7.59869910E+00  7.59869910E+00
 -1.51973982E+01  7.59869910E+00  7.59869910E+00 -1.51973982E+01  7.59869910E+00
  7.59869910E+00 -1.51973982E+01  7.59869910E+00  7.59869910E+00 -1.51973982E+01
  7.59869910E+00  7.59869910E+00 -1.51973982E+01  7.59869910E+00  7.59869910E+00
 -1.51973982E+01  7.59869910E+00  7.59869910E+00 -1.51973982E+01  7.59869910E+00
  7.59869910E+00 -1.51973982E+01  7.59869910E+00  7.59869910E+00 -1.51973982E+01
  7.59869910E+00  7.59869910E+00 -1.51973982E+01  7.59869910E+00  7.59869910E+00
 -1.51973982E+01  7.59869910E+00  7.59869910E+00 -1.51973982E+01  7.59869910E+00
  7.59869910E+00 -1.51973982E+01  7.59869910E+00  7.59869910E+00 -1.51973982E+01
  7.59869910E+00  7.59869910E+00 -1.51973982E+01  7.59869910E+00  7.59869910E+00
 -1.51973982E+01  7.59869910E+00  7.59869910E+00 -1.51973982E+01  7.59869910E+00
  7.59869910E+00 -1.51973982E+01  7.59869910E+00  7.59869910E+00 -1.51973982E+01
  7.59869910E+00  7.59869910E+00 -1.51973982E+01  7.59869910E+00  7.59869910E+00
 -1.51973982E+01  7.59869910E+00  7.59869910E+00 -1.51973982E+01  7.59869910E+00
  7.59869910E+00 -1.51973982E+01  7.59869910E+00  7.59869910E+00 -1.51973982E+01
  7.59869910E+00  7.59869910E+00 -1.51973982E+01  7.59869910E+00  7.59869910E+00
 -1.51973982E+01  7.59869910E+00  7.59869910E+00 -1.51973982E+01  7.59869910E+00
  7.59869910E+00 -1.51973982E+01  7.59869910E+00  7.59869910E+00 -1.51973982E+01
  7.59869910E+00  7.59869910E+00 -1.51973982E+01  7.59869910E+00  7.59869910E+00
 -1.51973982E+01  7.59869910E+00  7.59869910E+00 -1.51973982E+01  7.59869910E+00
  7.59869910E+00 -1.51973982E+01  7.59869910E+00  7.59869910E+00 -1.51973982E+01
  7.59869910E+00  7.59869910E+00 -1.51973982E+01  7.59869910E+00  7.59869910E+00
 -1.51973982E+01  7.59869910E+00  7.59869910E+00 -1.51973982E+01  7.59869910E+00
  7.59869910E+00 -1.51973982E+01  7.59869910E+00  7.59869910E+00 -1.51973982E+01
  7.59869910E+00  7.59869910E+00 -1.51973982E+01  7.59869910E+00  7.59869910E+00
 -1.51973982E+01  7.59869910E+00  7.59869910E+00 -1.51973982E+01  7.59869910E+00
  7.59869910E+00 -1.51973982E+01  7.59869910E+00  7.59869910E+00 -1.51973982E+01
  7.59869910E+00  7.59869910E+00 -1.51973982E+01  7.59869910E+00  7.59869910E+00
 -1.51973982E+01  7.59869910E+00  7.59869910E+00 -1.51973982E+01  7.59869910E+00
  7.59869910E+00 -1.51973982E+01  7.59869910E+00  7.59869910E+00 -1.51973982E+01
  7.59869910E+00  7.59869910E+00 -1.51973982E+01  7.59869910E+00  7.59869910E+00
 -1.51973982E+01  7.59869910E+00  7.59869910E+00 -1.51973982E+01  7.59869910E+00
  7.59869910E+00 -1.51973982E+01  7.59869910E+00  7.59869910E+00 -1.51973982E+01
  7.59869910E+00  7.59869910E+00 -1.51973982E+01  7.59869910E+00  7.59869910E+00
 -1.51973982E+01  7.59869910E+00  7.59869910E+00 -1.51973982E+01  7.59869910E+00
  7.59869910E+00 -1.51973982E+01  7.59869910E+00  7.59869910E+00 -1.51973982E+01
  7.59869910E+00  7.59869910E+00 -1.51973982E+01  7.59869910E+00  7.59869910E+00
 -1.51973982E+01  7.59869910E+00  7.59869910E+00 -1.51973982E+01  7.59869910E+00
  7.59869910E+00 -1.51973982E+01  7.59869910E+00  7.59869910E+00 -1.51973982E+01
  7.59869910E+00  7.59869910E+00 -1.51973982E+01  7.59869910E+00  7.59869910E+00
 -1.51973982E+01  7.59869910E+00  7.59869910E+00 -1.51973982E+01  7.59869910E+00
  7.59869910E+00 -1.51973982E+01  7.59869910E+00  7.59869910E+00 -1.51973982E+01
  7.59869910E+00  7.59869910E+00 -1.51973982E+01  7.59869910E+00  7.59869910E+00
 -1.51973982E+01  7.59869910E+00  7.59869910E+00 -1.51973982E+01  7.59869910E+00
  7.59869910E+00 -1.51973982E+01  7.59869910E+00  7.59869910E+00 -1.51973982E+01
  7.59869910E+00  7.59869910E+00 -1.51973982E+01  7.59869910E+00  7.59869910E+00
 -1.51973982E+01  7.59869910E+00  7.59869910E+00 -1.51973982E+01  7.59869910E+00
  7.59869910E+00 -1.51973982E+01  7.59869910E+00  7.59869910E+00 -1.51973982E+01
  7.59869910E+00  7.59869910E+00 -1.51973982E+01  7.59869910E+00  7.59869910E+00
 -1.51973982E+01  7.59869910E+00  7.59869910E+00 -1.51973982E+01  7.59869910E+00
  7.59869910E+00 -1.51973982E+01  7.59869910E+00  7.59869910E+00 -1.51973982E+01
  7.59869910E+00  7.59869910E+00 -1.51973982E+01  7.59869910E+00  7.59869910E+00
 -1.51973982E+01  7.59869910E+00  7.59869910E+00 -1.51973982E+01  7.59869910E+00
  7.59869910E+00 -1.51973982E+01  7.59869910E+00  7.59869910E+00 -1.51973982E+01
  7.59869910E+00  7.59869910E+00 -1.51973982E+01  7.59869910E+00  7.59869910E+00
 -1.51973982E+01  7.59869910E+00  7.59869910E+00 -1.51973982E+01  7.59869910E+00
  7.59869910E+00 -1.51973982E+01  7.59869910E+00  7.59869910E+00 -1.51973982E+01
  7.59869910E+00  7.59869910E+00 -1.51973982E+01  7.59869910E+00  7.59869910E+00
 -1.51973982E+01  7.59869910E+00  7.59869910E+00 -1.51973982E+01  7.59869910E+00
  7.59869910E+00 -1.51973982E+01  7.59869910E+00  7.59869910E+00 -1.51973982E+01
  7.59869910E+00  7.59869910E+00 -1.51973982E+01  7.59869910E+00  7.59869910E+00
 -1.51973982E+01  7.59869910E+00  7.59869910E+00 -1.51973982E+01  7.59869910E+00
  7.59869910E+00 -1.51973982E+01  7.59869910E+00  7.59869910E+00 -1.51973982E+01
  7.59869910E+00  7.59869910E+00 -1.51973982E+01  7.59869910E+00  7.59869910E+00
 -1.51973982E+01  7.59869910E+00  7.59869910E+00 -1.51973982E+01  7.59869910E+00
  7.59869910E+00 -1.51973982E+01  7.59869910E+00  7.59869910E+00 -1.51973982E+01
  7.59869910E+00  7.59869910E+00 -1.51973982E+01  7.59869910E+00  7.59869910E+00
 -1.51973982E+01  7.59869910E+00  7.59869910E+00 -1.51973982E+01  7.59869910E+00
  7.59869910E+00 -1.51973982E+01  7.59869910E+00  7.59869910E+00 -1.51973982E+01
  7.59869910E+00  7.59869910E+00 -1.51973982E+01  7.59869910E+00  7.59869910E+00
 -1.51973982E+01  7.59869910E+00  7.59869910E+00 -1.51973982E+01  7.59869910E+00
  7.59869910E+00 -1.51973982E+01  7.59869910E+00  7.59869910E+00 -1.51973982E+01
  7.59869910E+00  7.59869910E+00 -1.51973982E+01  7.59869910E+00  7.59869910E+00
 -1.51973982E+01  7.59869910E+00  7.59869910E+00 -1.51973982E+01  7.59869910E+00
  7.59869910E+00 -1.51973982E+01  7.59869910E+00  7.59869910E+00 -1.51973982E+01
  7.59869910E+00  7.59869910E+00 -1.51973982E+01  7.59869910E+00  7.59869910E+00
 -1.51973982E+01  7.59869910E+00  7.59869910E+00 -1.51973982E+01  7.59869910E+00
  7.59869910E+00 -1.51973982E+01  7.59869910E+00  7.59869910E+00 -1.51973982E+01
  7.59869910E+00  7.59869910E+00 -1.51973982E+01  7.59869910E+00  7.59869910E+00
 -1.51973982E+01  7.59869910E+00  7.59869910E+00 -1.51973982E+01  7.59869910E+00
  7.59869910E+00 -1.51973982E+01  7.59869910E+00  7.59869910E+00 -1.51973982E+01
  7.59869910E+00  7.59869910E+00 -1.51973982E+01  7.59869910E+00  7.59869910E+00
 -1.51973982E+01  7.59869910E+00  7.59869910E+00 -1.51973982E+01  7.59869910E+00
  7.59869910E+00 -1.51973982E+01  7.59869910E+00  7.59869910E+00 -1.51973982E+01
  7.59869910E+00  7.59869910E+00 -1.51973982E+01  7.59869910E+00  7.59869910E+00
 -1.51973982E+01  7.59869910E+00  7.59869910E+00 -1.51973982E+01  7.59869910E+00
  7.59869910E+00 -1.51973982E+01  7.59869910E+00  7.59869910E+00 -1.51973982E+01
  7.59869910E+00  7.59869910E+00 -1.51973982E+01  7.59869910E+00  7.59869910E+00
 -1.51973982E+01  7.59869910E+00  7.59869910E+00 -1.51973982E+01  7.59869910E+00
  7.59869910E+00 -1.51973982E+01  7.59869910E+00  7.59869910E+00 -1.51973982E+01
  7.59869910E+00  7.59869910E+00 -1.51973982E+01  7.59869910E+00  7.59869910E+00
 -1.51973982E+01  7.59869910E+00  7.59869910E+00 -1.51973982E+01  7.59869910E+00
  7.59869910E+00 -1.51973982E+01  7.59869910E+00  7.59869910E+00 -1.51973982E+01
  7.59869910E+00  7.59869910E+00 -1.51973982E+01  7.59869910E+00  7.59869910E+00
 -1.51973982E+01  7.59869910E+00  7.59869910E+00 -1.51973982E+01  7.59869910E+00
  7.59869910E+00 -1.51973982E+01  7.59869910E+00  7.59869910E+00 -1.51973982E+01
  7.59869910E+00  7.59869910E+00 -1.51973982E+01  7.59869910E+00  7.59869910E+00
 -1.51973982E+01  7.59869910E+00  7.59869910E+00 -1.51973982E+01  7.59869910E+00
  7.59869910E+00 -1.51973982E+01  7.59869910E+00  7.59869910E+00 -1.51973982E+01
  7.59869910E+00  7.59869910E+00 -1.51973982E+01  7.59869910E+00  7.59869910E+00
 -1.51973982E+01  7.59869910E+00  7.59869910E+00 -1.51973982E+01  7.59869910E+00
  7.59869910E+00 -1.51973982E+01  7.59869910E+00  7.59869910E+00 -1.51973982E+01
  7.59869910E+00  7.59869910E+00 -1.51973982E+01  7.59869910E+00  7.59869910E+00
 -1.51973982E+01  7.59869910E+00  7.59869910E+00 -1.51973982E+01  7.59869910E+00
  7.59869910E+00 -1.51973982E+01  7.59869910E+00  7.59869910E+00 -1.51973982E+01
  7.59869910E+00  7.59869910E+00 -1.51973982E+01  7.59869910E+00  7.59869910E+00
 -1.51973982E+01  7.59869910E+00  7.59869910E+00 -1.51973982E+01  7.59869910E+00
  7.59869910E+00 -1.51973982E+01  7.59869910E+00  7.59869910E+00 -1.51973982E+01
  7.59869910E+00  7.59869910E+00 -1.51973982E+01  7.59869910E+00  7.59869910E+00
 -1.51973982E+01  7.59869910E+00  7.59869910E+00 -1.51973982E+01  7.59869910E+00
  7.59869910E+00 -1.51973982E+01  7.59869910E+00  7.59869910E+00 -1.51973982E+01
  7.59869910E+00  7.59869910E+00 -1.51973982E+01  7.59869910E+00  7.59869910E+00
 -1.51973982E+01  7.59869910E+00  7.59869910E+00 -1.51973982E+01  7.59869910E+00
  7.59869910E+00 -1.51973982E+01  7.59869910E+00  7.59869910E+00 -1.51973982E+01
  7.59869910E+00  7.59869910E+00 -1.51973982E+01  7.59869910E+00  7.59869910E+00
 -1.51973982E+01  7.59869910E+00  7.59869910E+00 -1.51973982E+01  7.59869910E+00
  7.59869910E+00 -1.51973982E+01  7.59869910E+00  7.59869910E+00 -1.51973982E+01
  7.59869910E+00  7.59869910E+00 -1.51973982E+01  7.59869910E+00  7.59869910E+00
 -1.51973982E+01  7.59869910E+00  7.59869910E+00 -1.51973982E+01  7.59869910E+00
  7.59869910E+00 -1.51973982E+01  7.59869910E+00  7.59869910E+00 -1.51973982E+01
  7.59869910E+00  7.59869910E+00 -1.51973982E+01  7.59869910E+00  7.59869910E+00
 -1.51973982E+01  7.59869910E+00  7.59869910E+00 -1.51973982E+01  7.59869910E+00
  7.59869910E+00 -1.51973982E+01  7.59869910E+00  7.59869910E+00 -1.51973982E+01
  7.59869910E+00  7.59869910E+00 -1.51973982E+01  7.59869910E+00  7.59869910E+00
 -1.51973982E+01  7.59869910E+00  7.59869910E+00 -1.51973982E+01  7.59869910E+00
  7.59869910E+00 -1.51973982E+01  7.59869910E+00  7.59869910E+00 -1.51973982E+01
  7.59869910E+00  7.59869910E+00 -1.51973982E+01  7.59869910E+00  7.59869910E+00
 -1.51973982E+01  7.59869910E+00  7.59869910E+00 -1.51973982E+01  7.59869910E+00
  7.59869910E+00 -1.51973982E+01  7.59869910E+00  7.59869910E+00 -1.51973982E+01
  7.59869910E+00  7.59869910E+00 -1.51973982E+01  7.59869910E+00  7.59869910E+00
 -1.51973982E+01  7.59869910E+00  7.59869910E+00 -1.51973982E+01  7.59869910E+00
  7.59869910E+00 -1.51973982E+01  7.59869910E+00  7.59869910E+00 -1.51973982E+01
  7.59869910E+00  7.59869910E+00 -1.51973982E+01  7.59869910E+00  7.59869910E+00
 -1.51973982E+01  7.59869910E+00  7.59869910E+00 -1.51973982E+01  7.59869910E+00
  7.59869910E+00 -1.51973982E+01  7.59869910E+00  7.59869910E+00 -1.51973982E+01
  7.59869910E+00  7.59869910E+00 -1.51973982E+01  7.59869910E+00  7.59869910E+00
 -1.51973982E+01  7.59869910E+00  7.59869910E+00 -1.51973982E+01  7.59869910E+00
  7.59869910E+00 -1.51973982E+01  7.59869910E+00  7.59869910E+00 -1.51973982E+01
  7.59869910E+00  7.59869910E+00 -1.51973982E+01  7.59869910E+00  7.59869910E+00
 -1.51973982E+01  7.59869910E+00  7.59869910E+00 -1.51973982E+01  7.59869910E+00
  7.59869910E+00 -1.51973982E+01  7.59869910E+00  7.59869910E+00 -1.51973982E+01
  7.59869910E+00  7.59869910E+00 -1.51973982E+01  7.59869910E+00  7.59869910E+00
 -1.51973982E+01  7.59869910E+00  7.59869910E+00 -1.51973982E+01  7.59869910E+00
  7.59869910E+00 -1.51973982E+01  7.59869910E+00  7.59869910E+00 -1.51973982E+01
  7.59869910E+00  7.59869910E+00 -1.51973982E+01  7.59869910E+00  7.59869910E+00
 -1.51973982E+01  7.59869910E+00  7.59869910E+00 -1.51973982E+01  7.59869910E+00
  7.59869910E+00 -1.51973982E+01  7.59869910E+00  7.59869910E+00 -1.51973982E+01
  7.59869910E+00  7.59869910E+00 -1.51973982E+01  7.59869910E+00  7.59869910E+00
 -1.51973982E+01  7.59869910E+00  7.59869910E+00 -1.51973982E+01  7.59869910E+00
  7.59869910E+00 -1.51973982E+01  7.59869910E+00  7.59869910E+00 -1.51973982E+01
  7.59869910E+00  7.59869910E+00 -1.51973982E+01  7.59869910E+00  7.59869910E+00
 -1.51973982E+01  7.59869910E+00  7.59869910E+00 -1.51973982E+01  7.59869910E+00
  7.59869910E+00 -1.51973982E+01  7.59869910E+00  7.59869910E+00 -1.51973982E+01
  7.59869910E+00  7.59869910E+00 -1.51973982E+01  7.59869910E+00  7.59869910E+00
 -1.51973982E+01  7.59869910E+00  7.59869910E+00 -1.51973982E+01  7.59869910E+00
  7.59869910E+00 -1.51973982E+01  7.59869910E+00  7.59869910E+00 -1.51973982E+01
  7.59869910E+00  7.59869910E+00 -1.51973982E+01  7.59869910E+00  7.59869910E+00
 -1.51973982E+01  7.59869910E+00  7.59869910E+00 -1.51973982E+01  7.59869910E+00
  7.59869910E+00 -1.51973982E+01  7.59869910E+00  7.59869910E+00 -1.51973982E+01
  7.59869910E+00  7.59869910E+00 -1.51973982E+01  7.59869910E+00  7.59869910E+00
 -1.51973982E+01  7.59869910E+00  7.59869910E+00 -1.51973982E+01  7.59869910E+00
  7.59869910E+00 -1.51973982E+01  7.59869910E+00  7.59869910E+00 -1.51973982E+01
  7.59869910E+00  7.59869910E+00 -1.51973982E+01  7.59869910E+00  7.59869910E+00
 -1.51973982E+01  7.59869910E+00  7.59869910E+00 -1.51973982E+01  7.59869910E+00
  7.59869910E+00 -1.51973982E+01  7.59869910E+00  7.59869910E+00 -1.51973982E+01
  7.59869910E+00  7.59869910E+00 -1.51973982E+01  7.59869910E+00  7.59869910E+00
 -1.51973982E+01  7.59869910E+00  7.59869910E+00 -1.51973982E+01  7.59869910E+00
  7.59869910E+00 -1.51973982E+01  7.59869910E+00  7.59869910E+00 -1.51973982E+01
  7.59869910E+00  7.59869910E+00 -1.51973982E+01  7.59869910E+00  7.59869910E+00
 -1.51973982E+01  7.59869910E+00  7.59869910E+00 -1.51973982E+01  7.59869910E+00
  7.59869910E+00 -1.51973982E+01  7.59869910E+00  7.59869910E+00 -1.51973982E+01
  7.59869910E+00  7.59869910E+00 -1.51973982E+01  7.59869910E+00  7.59869910E+00
 -1.51973982E+01  7.59869910E+00  7.59869910E+00 -1.51973982E+01  7.59869910E+00
  7.59869910E+00 -1.51973982E+01  7.59869910E+00  7.59869910E+00 -1.51973982E+01
  7.59869910E+00  7.59869910E+00 -1.51973982E+01  7.59869910E+00  7.59869910E+00
 -1.51973982E+01  7.59869910E+00  7.59869910E+00 -1.51973982E+01  7.59869910E+00
  7.59869910E+00 -1.51973982E+01  7.59869910E+00  7.59869910E+00 -1.51973982E+01
  7.59869910E+00  7.59869910E+00 -1.51973982E+01  7.59869910E+00  7.59869910E+00
 -1.51973982E+01  7.59869910E+00  7.59869910E+00 -1.51973982E+01  7.59869910E+00
  7.59869910E+00 -1.51973982E+01  7.59869910E+00  7.59869910E+00 -1.51973982E+01
  7.59869910E+00  7.59869910E+00 -1.51973982E+01  7.59869910E+00  7.59869910E+00
 -1.51973982E+01  7.59869910E+00  7.59869910E+00 -1.51973982E+01  7.59869910E+00
  7.59869910E+00 -1.51973982E+01  7.59869910E+00  7.59869910E+00 -1.51973982E+01
  7.59869910E+00  7.59869910E+00 -1.51973982E+01  7.59869910E+00  7.59869910E+00
 -1.51973982E+01  7.59869910E+00  7.59869910E+00 -1.51973982E+01  7.59869910E+00
  7.59869910E+00 -1.51973982E+01  7.59869910E+00  7.59869910E+00 -1.51973982E+01
  7.59869910E+00  7.59869910E+00 -1.51973982E+01  7.59869910E+00  7.59869910E+00
 -1.51973982E+01  7.59869910E+00  7.59869910E+00 -1.51973982E+01  7.59869910E+00
  7.59869910E+00 -1.51973982E+01  7.59869910E+00  7.59869910E+00 -1.51973982E+01
  7.59869910E+00  7.59869910E+00 -1.51973982E+01  7.59869910E+00  7.59869910E+00
 -1.51973982E+01  7.59869910E+00  7.59869910E+00 -1.51973982E+01  7.59869910E+00
  7.59869910E+00 -1.51973982E+01  7.59869910E+00  7.59869910E+00 -1.51973982E+01
  7.59869910E+00  7.59869910E+00 -1.51973982E+01  7.59869910E+00  7.59869910E+00
 -1.51973982E+01  7.59869910E+00  7.59869910E+00 -1.51973982E+01  7.59869910E+00
  7.59869910E+00 -1.51973982E+01  7.59869910E+00  7.59869910E+00 -1.51973982E+01
  7.59869910E+00  7.59869910E+00 -1.51973982E+01  7.59869910E+00  7.59869910E+00
 -1.51973982E+01  7.59869910E+00  7.59869910E+00 -1.51973982E+01  7.59869910E+00
  7.59869910E+00 -1.51973982E+01  7.59869910E+00  7.59869910E+00 -1.51973982E+01
  7.59869910E+00  7.59869910E+00 -1.51973982E+01  7.59869910E+00  7.59869910E+00
 -1.51973982E+01  7.59869910E+00  7.59869910E+00 -1.51973982E+01  7.59869910E+00
  7.59869910E+00 -1.51973982E+01  7.59869910E+00  7.59869910E+00 -1.51973982E+01
  7.59869910E+00  7.59869910E+00 -1.51973982E+01  7.59869910E+00  7.59869910E+00
 -1.51973982E+01  7.59869910E+00  7.59869910E+00 -1.51973982E+01  7.59869910E+00
  7.59869910E+00 -1.51973982E+01  7.59869910E+00  7.59869910E+00 -1.51973982E+01
  7.59869910E+00  7.59869910E+00 -1.51973982E+01  7.59869910E+00  7.59869910E+00
 -1.51973982E+01  7.59869910E+00  7.59869910E+00 -1.51973982E+01  7.59869910E+00
  7.59869910E+00 -1.51973982E+01  7.59869910E+00  7.59869910E+00 -1.51973982E+01
  7.59869910E+00  7.59869910E+00 -1.51973982E+01  7.59869910E+00  7.59869910E+00
 -1.51973982E+01  7.59869910E+00  7.59869910E+00 -1.51973982E+01  7.59869910E+00
  7.59869910E+00 -1.51973982E+01  7.59869910E+00  7.59869910E+00 -1.51973982E+01
  7.59869910E+00  7.59869910E+00 -1.51973982E+01  7.59869910E+00  7.59869910E+00
 -1.51973982E+01  7.59869910E+00  7.59869910E+00 -1.51973982E+01  7.59869910E+00
  7.59869910E+00 -1.51973982E+01  7.59869910E+00  7.59869910E+00 -1.51973982E+01
  7.59869910E+00  7.59869910E+00 -1.51973982E+01  7.59869910E+00  7.59869910E+00
 -1.51973982E+01  7.59869910E+00  7.59869910E+00 -1.51973982E+01  7.59869910E+00
  7.59869910E+00 -1.51973982E+01  7.59869910E+00  7.59869910E+00 -1.51973982E+01
  7.59869910E+00  7.59869910E+00 -1.51973982E+01  7.59869910E+00  7.59869910E+00
 -1.51973982E+01  7.59869910E+00  7.59869910E+00 -1.51973982E+01  7.59869910E+00
  7.59869910E+00 -1.51973982E+01  7.59869910E+00  7.59869910E+00 -1.51973982E+01
  7.59869910E+00  7.59869910E+00 -1.51973982E+01  7.59869910E+00  7.59869910E+00
 -1.51973982E+01  7.59869910E+00  7.59869910E+00 -1.51973982E+01  7.59869910E+00
  7.59869910E+00 -1.51973982E+01  7.59869910E+00  7.59869910E+00 -1.51973982E+01
  7.59869910E+00  7.59869910E+00 -1.51973982E+01  7.59869910E+00  7.59869910E+00
 -1.51973982E+01  7.59869910E+00  7.59869910E+00 -1.51973982E+01  7.59869910E+00
  7.59869910E+00 -1.51973982E+01  7.59869910E+00  7.59869910E+00 -1.51973982E+01
  7.59869910E+00  7.59869910E+00 -1.51973982E+01  7.59869910E+00  7.59869910E+00
 -1.51973982E+01  7.59869910E+00  7.59869910E+00 -1.51973982E+01  7.59869910E+00
  7.59869910E+00 -1.51973982E+01  7.59869910E+00  7.59869910E+00 -1.51973982E+01
  7.59869910E+00  7.59869910E+00 -1.51973982E+01  7.59869910E+00  7.59869910E+00
 -1.51973982E+01  7.59869910E+00  7.59869910E+00 -1.51973982E+01  7.59869910E+00
  7.59869910E+00 -1.51973982E+01  7.59869910E+00  7.59869910E+00 -1.51973982E+01
  7.59869910E+00  7.59869910E+00 -1.51973982E+01  7.59869910E+00  7.59869910E+00
 -1.51973982E+01  7.59869910E+00  7.59869910E+00 -1.51973982E+01  7.59869910E+00
  7.59869910E+00 -1.51973982E+01  7.59869910E+00  7.59869910E+00 -1.51973982E+01
  7.59869910E+00  7.59869910E+00 -1.51973982E+01  7.59869910E+00  7.59869910E+00
 -1.51973982E+01  7.59869910E+00  7.59869910E+00 -1.51973982E+01  7.59869910E+00
  7.59869910E+00 -1.51973982E+01  7.59869910E+00  7.59869910E+00 -1.51973982E+01
  7.59869910E+00  7.59869910E+00 -1.51973982E+01  7.59869910E+00  7.59869910E+00
 -1.51973982E+01  7.59869910E+00  7.59869910E+00 -1.51973982E+01  7.59869910E+00
  7.59869910E+00 -1.51973982E+01  7.59869910E+00  7.59869910E+00 -1.51973982E+01
  7.59869910E+00  7.59869910E+00 -1.51973982E+01  7.59869910E+00  7.59869910E+00
 -1.51973982E+01  7.59869910E+00  7.59869910E+00 -1.51973982E+01  7.59869910E+00
  7.59869910E+00 -1.51973982E+01  7.59869910E+00  7.59869910E+00 -1.51973982E+01
  7.59869910E+00  7.59869910E+00 -1.51973982E+01  7.59869910E+00  7.59869910E+00
 -1.51973982E+01  7.59869910E+00  7.59869910E+00 -1.51973982E+01  7.59869910E+00
  7.59869910E+00 -1.51973982E+01  7.59869910E+00  7.59869910E+00 -1.51973982E+01
  7.59869910E+00  7.59869910E+00 -1.51973982E+01  7.59869910E+00  7.59869910E+00
 -1.51973982E+01  7.59869910E+00  7.59869910E+00 -1.51973982E+01  7.59869910E+00
  7.59869910E+00 -1.51973982E+01  7.59869910E+00  7.59869910E+00 -1.51973982E+01
  7.59869910E+00  7.59869910E+00 -1.51973982E+01  7.59869910E+00  7.59869910E+00
 -1.51973982E+01  7.59869910E+00  7.59869910E+00 -1.51973982E+01  7.59869910E+00
  7.59869910E+00 -1.51973982E+01  7.59869910E+00  7.59869910E+00 -1.51973982E+01
  7.59869910E+00  7.59869910E+00 -1.51973982E+01  7.59869910E+00  7.59869910E+00
 -1.51973982E+01  7.59869910E+00  7.59869910E+00 -1.51973982E+01  7.59869910E+00
  7.59869910E+00 -1.51973982E+01  7.59869910E+00  7.59869910E+00 -1.51973982E+01
  7.59869910E+00  7.59869910E+00 -1.51973982E+01  7.59869910E+00  7.59869910E+00
 -1.51973982E+01  7.59869910E+00  7.59869910E+00 -1.51973982E+01  7.59869910E+00
  7.59869910E+00 -1.51973982E+01  7.59869910E+00  7.59869910E+00 -1.51973982E+01
  7.59869910E+00  7.59869910E+00 -1.51973982E+01  7.59869910E+00  7.59869910E+00
 -1.51973982E+01  7.59869910E+00  7.59869910E+00 -1.51973982E+01  7.59869910E+00
  7.59869910E+00 -1.51973982E+01  7.59869910E+00  7.59869910E+00 -1.51973982E+01
  7.59869910E+00  7.59869910E+00 -1.51973982E+01  7.59869910E+00  7.59869910E+00
 -1.51973982E+01  7.59869910E+00  7.59869910E+00 -1.51973982E+01  7.59869910E+00
  7.59869910E+00 -1.51973982E+01  7.59869910E+00  7.59869910E+00 -1.51973982E+01
  7.59869910E+00  7.59869910E+00 -1.51973982E+01  7.59869910E+00  7.59869910E+00
 -1.51973982E+01  7.59869910E+00  7.59869910E+00 -1.51973982E+01  7.59869910E+00
  7.59869910E+00 -1.51973982E+01  7.59869910E+00  7.59869910E+00 -1.51973982E+01
  7.59869910E+00  7.59869910E+00 -1.51973982E+01  7.59869910E+00  7.59869910E+00
 -1.51973982E+01  7.59869910E+00  7.59869910E+00 -1.51973982E+01  7.59869910E+00
  7.59869910E+00 -1.51973982E+01  7.59869910E+00  7.59869910E+00 -1.51973982E+01
  7.59869910E+00  7.59869910E+00 -1.51973982E+01  7.59869910E+00  7.59869910E+00
 -1.51973982E+01  7.59869910E+00  7.59869910E+00 -1.51973982E+01  7.59869910E+00
  7.59869910E+00 -1.51973982E+01  7.59869910E+00  7.59869910E+00 -1.51973982E+01
  7.59869910E+00  7.59869910E+00 -1.51973982E+01  7.59869910E+00  7.59869910E+00
 -1.51973982E+01  7.59869910E+00  7.59869910E+00 -1.51973982E+01  7.59869910E+00
  7.59869910E+00 -1.51973982E+01  7.59869910E+00  7.59869910E+00 -1.51973982E+01
  7.59869910E+00  7.59869910E+00 -1.51973982E+01  7.59869910E+00  7.59869910E+00
 -1.51973982E+01  7.59869910E+00  7.59869910E+00 -1.51973982E+01  7.59869910E+00
  7.59869910E+00 -1.51973982E+01  7.59869910E+00  7.59869910E+00 -1.51973982E+01
  7.59869910E+00  7.59869910E+00 -1.51973982E+01  7.59869910E+00  7.59869910E+00
 -1.51973982E+01  7.59869910E+00  7.59869910E+00 -1.51973982E+01  7.59869910E+00
  7.59869910E+00 -1.51973982E+01  7.59869910E+00  7.59869910E+00 -1.51973982E+01
  7.59869910E+00  7.59869910E+00 -1.51973982E+01  7.59869910E+00  7.59869910E+00
 -1.51973982E+01  7.59869910E+00  7.59869910E+00 -1.51973982E+01  7.59869910E+00
  7.59869910E+00 -1.51973982E+01  7.59869910E+00  7.59869910E+00 -1.51973982E+01
  7.59869910E+00  7.59869910E+00 -1.51973982E+01  7.59869910E+00  7.59869910E+00
 -1.51973982E+01  7.59869910E+00  7.59869910E+00 -1.51973982E+01  7.59869910E+00
  7.59869910E+00 -1.51973982E+01  7.59869910E+00  7.59869910E+00 -1.51973982E+01
  7.59869910E+00  7.59869910E+00 -1.51973982E+01  7.59869910E+00  7.59869910E+00
 -1.51973982E+01  7.59869910E+00  7.59869910E+00 -1.51973982E+01  7.59869910E+00
  7.59869910E+00 -1.51973982E+01  7.59869910E+00  7.59869910E+00 -1.51973982E+01
  7.59869910E+00  7.59869910E+00 -1.51973982E+01  7.59869910E+00  7.59869910E+00
 -1.51973982E+01  7.59869910E+00  7.59869910E+00 -1.51973982E+01  7.59869910E+00
  7.59869910E+00 -1.51973982E+01  7.59869910E+00  7.59869910E+00 -1.51973982E+01
  7.59869910E+00  7.59869910E+00 -1.51973982E+01  7.59869910E+00  7.59869910E+00
 -1.51973982E+01  7.59869910E+00  7.59869910E+00 -1.51973982E+01  7.59869910E+00
  7.59869910E+00 -1.51973982E+01  7.59869910E+00  7.59869910E+00 -1.51973982E+01
  7.59869910E+00  7.59869910E+00 -1.51973982E+01  7.59869910E+00  7.59869910E+00
 -1.51973982E+01  7.59869910E+00  7.59869910E+00 -1.51973982E+01  7.59869910E+00
  7.59869910E+00 -1.51973982E+01  7.59869910E+00  7.59869910E+00 -1.51973982E+01
  7.59869910E+00  7.59869910E+00 -1.51973982E+01  7.59869910E+00  7.59869910E+00
 -1.51973982E+01  7.59869910E+00  7.59869910E+00 -1.51973982E+01  7.59869910E+00
  7.59869910E+00 -1.51973982E+01  7.59869910E+00  7.59869910E+00 -1.51973982E+01
  7.59869910E+00  7.59869910E+00 -1.51973982E+01  7.59869910E+00  7.59869910E+00
 -1.51973982E+01  7.59869910E+00  7.59869910E+00 -1.51973982E+01  7.59869910E+00
  7.59869910E+00 -1.51973982E+01  7.59869910E+00  7.59869910E+00 -1.51973982E+01
  7.59869910E+00  7.59869910E+00 -1.51973982E+01  7.59869910E+00  7.59869910E+00
 -1.51973982E+01  7.59869910E+00  7.59869910E+00 -1.51973982E+01  7.59869910E+00
  7.59869910E+00 -1.51973982E+01  7.59869910E+00  7.59869910E+00 -1.51973982E+01
  7.59869910E+00  7.59869910E+00 -1.51973982E+01  7.59869910E+00  7.59869910E+00
 -1.51973982E+01  7.59869910E+00  7.59869910E+00 -1.51973982E+01  7.59869910E+00
  7.59869910E+00 -1.51973982E+01  7.59869910E+00  7.59869910E+00 -1.51973982E+01
  7.59869910E+00  7.59869910E+00 -1.51973982E+01  7.59869910E+00  7.59869910E+00
 -1.51973982E+01  7.59869910E+00  7.59869910E+00 -1.51973982E+01  7.59869910E+00
  7.59869910E+00 -1.51973982E+01  7.59869910E+00  7.59869910E+00 -1.51973982E+01
  7.59869910E+00  7.59869910E+00 -1.51973982E+01  7.59869910E+00  7.59869910E+00
 -1.51973982E+01  7.59869910E+00  7.59869910E+00 -1.51973982E+01  7.59869910E+00
  7.59869910E+00 -1.51973982E+01  7.59869910E+00  7.59869910E+00 -1.51973982E+01
  7.59869910E+00  7.59869910E+00 -1.51973982E+01  7.59869910E+00  7.59869910E+00
 -1.51973982E+01  7.59869910E+00  7.59869910E+00 -1.51973982E+01  7.59869910E+00
  7.59869910E+00 -1.51973982E+01  7.59869910E+00  7.59869910E+00 -1.51973982E+01
  7.59869910E+00  7.59869910E+00 -1.51973982E+01  7.59869910E+00  7.59869910E+00
 -1.51973982E+01  7.59869910E+00  7.59869910E+00 -1.51973982E+01  7.59869910E+00
  7.59869910E+00 -1.51973982E+01  7.59869910E+00  7.59869910E+00 -1.51973982E+01
  7.59869910E+00  7.59869910E+00 -1.51973982E+01  7.59869910E+00  7.59869910E+00
 -1.51973982E+01  7.59869910E+00  7.59869910E+00 -1.51973982E+01  7.59869910E+00
  7.59869910E+00 -1.51973982E+01  7.59869910E+00  7.59869910E+00 -1.51973982E+01
  7.59869910E+00  7.59869910E+00 -1.51973982E+01  7.59869910E+00  7.59869910E+00
 -1.51973982E+01  7.59869910E+00  7.59869910E+00 -1.51973982E+01  7.59869910E+00
  7.59869910E+00 -1.51973982E+01  7.59869910E+00  7.59869910E+00 -1.51973982E+01
  7.59869910E+00  7.59869910E+00 -1.51973982E+01  7.59869910E+00  7.59869910E+00
 -1.51973982E+01  7.59869910E+00  7.59869910E+00 -1.51973982E+01  7.59869910E+00
  7.59869910E+00 -1.51973982E+01  7.59869910E+00  7.59869910E+00 -1.51973982E+01
  7.59869910E+00  7.59869910E+00 -1.51973982E+01  7.59869910E+00  7.59869910E+00
 -1.51973982E+01  7.59869910E+00  7.59869910E+00 -1.51973982E+01  7.59869910E+00
  7.59869910E+00 -1.51973982E+01  7.59869910E+00  7.59869910E+00 -1.51973982E+01
  7.59869910E+00  7.59869910E+00 -1.51973982E+01  7.59869910E+00  7.59869910E+00
 -1.51973982E+01  7.59869910E+00  7.59869910E+00 -1.51973982E+01  7.59869910E+00
  7.59869910E+00 -1.51973982E+01  7.59869910E+00  7.59869910E+00 -1.51973982E+01
  7.59869910E+00  7.59869910E+00 -1.51973982E+01  7.59869910E+00  7.59869910E+00
 -1.51973982E+01  7.59869910E+00  7.59869910E+00 -1.51973982E+01  7.59869910E+00
  7.59869910E+00 -1.51973982E+01  7.59869910E+00  7.59869910E+00 -1.51973982E+01
  7.59869910E+00  7.59869910E+00 -1.51973982E+01  7.59869910E+00  7.59869910E+00
 -1.51973982E+01  7.59869910E+00  7.59869910E+00 -1.51973982E+01  7.59869910E+00
  7.59869910E+00 -1.51973982E+01  7.59869910E+00  7.59869910E+00 -1.51973982E+01
  7.59869910E+00  7.59869910E+00 -1.51973982E+01  7.59869910E+00  7.59869910E+00
 -1.51973982E+01  7.59869910E+00  7.59869910E+00 -1.51973982E+01  7.59869910E+00
  7.59869910E+00 -1.51973982E+01  7.59869910E+00  7.59869910E+00 -1.51973982E+01
  7.59869910E+00  7.59869910E+00 -1.51973982E+01  7.59869910E+00  7.59869910E+00
 -1.51973982E+01  7.59869910E+00  7.59869910E+00 -1.51973982E+01  7.59869910E+00
  7.59869910E+00 -1.51973982E+01  7.59869910E+00  7.59869910E+00 -1.51973982E+01
  7.59869910E+00  7.59869910E+00 -1.51973982E+01  7.59869910E+00  7.59869910E+00
 -1.51973982E+01  7.59869910E+00  7.59869910E+00 -1.51973982E+01  7.59869910E+00
  7.59869910E+00 -1.51973982E+01  7.59869910E+00  7.59869910E+00 -1.51973982E+01
  7.59869910E+00  7.59869910E+00 -1.51973982E+01  7.59869910E+00  7.59869910E+00
 -1.51973982E+01  7.59869910E+00  7.59869910E+00 -1.51973982E+01  7.59869910E+00
  7.59869910E+00 -1.51973982E+01  7.59869910E+00  7.59869910E+00 -1.51973982E+01
  7.59869910E+00  7.59869910E+00 -1.51973982E+01  7.59869910E+00  7.59869910E+00
 -1.51973982E+01  7.59869910E+00  7.59869910E+00 -1.51973982E+01  7.59869910E+00
  7.59869910E+00 -1.51973982E+01  7.59869910E+00  7.59869910E+00 -1.51973982E+01
  7.59869910E+00  7.59869910E+00 -1.51973982E+01  7.59869910E+00  7.59869910E+00
 -1.51973982E+01  7.59869910E+00  7.59869910E+00 -1.51973982E+01  7.59869910E+00
  7.59869910E+00 -1.51973982E+01  7.59869910E+00  7.59869910E+00 -1.51973982E+01
  7.59869910E+00  7.59869910E+00 -1.51973982E+01  7.59869910E+00  7.59869910E+00
 -1.51973982E+01  7.59869910E+00  7.59869910E+00 -1.51973982E+01  7.59869910E+00
  7.59869910E+00 -1.51973982E+01  7.59869910E+00  7.59869910E+00 -1.51973982E+01
  7.59869910E+00  7.59869910E+00 -1.51973982E+01  7.59869910E+00  7.59869910E+00
 -1.51973982E+01  7.59869910E+00  7.59869910E+00 -1.51973982E+01  7.59869910E+00
  7.59869910E+00 -1.51973982E+01  7.59869910E+00  7.59869910E+00 -1.51973982E+01
  7.59869910E+00  7.59869910E+00 -1.51973982E+01  7.59869910E+00  7.59869910E+00
 -1.51973982E+01  7.59869910E+00  7.59869910E+00 -1.51973982E+01  7.59869910E+00
  7.59869910E+00 -1.51973982E+01  7.59869910E+00  7.59869910E+00 -1.51973982E+01
  7.59869910E+00  7.59869910E+00 -1.51973982E+01  7.59869910E+00  7.59869910E+00
 -1.51973982E+01  7.59869910E+00  7.59869910E+00 -1.51973982E+01  7.59869910E+00
  7.59869910E+00 -1.51973982E+01  7.59869910E+00  7.59869910E+00 -1.51973982E+01
  7.59869910E+00  7.59869910E+00 -1.51973982E+01  7.59869910E+00  7.59869910E+00
 -1.51973982E+01  7.59869910E+00  7.59869910E+00 -1.51973982E+01  7.59869910E+00
  7.59869910E+00 -1.51973982E+01  7.59869910E+00  7.59869910E+00 -1.51973982E+01
  7.59869910E+00  7.59869910E+00 -1.51973982E+01  7.59869910E+00  7.59869910E+00
 -1.51973982E+01  7.59869910E+00  7.59869910E+00 -1.51973982E+01  7.59869910E+00
  7.59869910E+00 -1.51973982E+01  7.59869910E+00  7.59869910E+00 -1.51973982E+01
  7.59869910E+00  7.59869910E+00 -1.51973982E+01  7.59869910E+00  7.59869910E+00
 -1.51973982E+01  7.59869910E+00  7.59869910E+00 -1.51973982E+01  7.59869910E+00
  7.59869910E+00 -1.51973982E+01  7.59869910E+00  7.59869910E+00 -1.51973982E+01
  7.59869910E+00  7.59869910E+00 -1.51973982E+01  7.59869910E+00  7.59869910E+00
 -1.51973982E+01  7.59869910E+00  7.59869910E+00 -1.51973982E+01  7.59869910E+00
  7.59869910E+00 -1.51973982E+01  7.59869910E+00  7.59869910E+00 -1.51973982E+01
  7.59869910E+00  7.59869910E+00 -1.51973982E+01  7.59869910E+00  7.59869910E+00
 -1.51973982E+01  7.59869910E+00  7.59869910E+00 -1.51973982E+01  7.59869910E+00
  7.59869910E+00 -1.51973982E+01  7.59869910E+00  7.59869910E+00 -1.51973982E+01
  7.59869910E+00  7.59869910E+00 -1.51973982E+01  7.59869910E+00  7.59869910E+00
 -1.51973982E+01  7.59869910E+00  7.59869910E+00 -1.51973982E+01  7.59869910E+00
  7.59869910E+00 -1.51973982E+01  7.59869910E+00  7.59869910E+00 -1.51973982E+01
  7.59869910E+00  7.59869910E+00 -1.51973982E+01  7.59869910E+00  7.59869910E+00
 -1.51973982E+01  7.59869910E+00  7.59869910E+00 -1.51973982E+01  7.59869910E+00
  7.59869910E+00 -1.51973982E+01  7.59869910E+00  7.59869910E+00 -1.51973982E+01
  7.59869910E+00  7.59869910E+00 -1.51973982E+01  7.59869910E+00  7.59869910E+00
 -1.51973982E+01  7.59869910E+00  7.59869910E+00 -1.51973982E+01  7.59869910E+00
  7.59869910E+00 -1.51973982E+01  7.59869910E+00  7.59869910E+00 -1.51973982E+01
  7.59869910E+00  7.59869910E+00 -1.51973982E+01  7.59869910E+00  7.59869910E+00
 -1.51973982E+01  7.59869910E+00  7.59869910E+00 -1.51973982E+01  7.59869910E+00
  7.59869910E+00 -1.51973982E+01  7.59869910E+00  7.59869910E+00 -1.51973982E+01
  7.59869910E+00  7.59869910E+00 -1.51973982E+01  7.59869910E+00  7.59869910E+00
 -1.51973982E+01  7.59869910E+00  7.59869910E+00 -1.51973982E+01  7.59869910E+00
  7.59869910E+00 -1.51973982E+01  7.59869910E+00  7.59869910E+00 -1.51973982E+01
  7.59869910E+00  7.59869910E+00 -1.51973982E+01  7.59869910E+00  7.59869910E+00
 -1.51973982E+01  7.59869910E+00  7.59869910E+00 -1.51973982E+01  7.59869910E+00
  7.59869910E+00 -1.51973982E+01  7.59869910E+00  7.59869910E+00 -1.51973982E+01
  7.59869910E+00  7.59869910E+00 -1.51973982E+01  7.59869910E+00  7.59869910E+00
 -1.51973982E+01  7.59869910E+00  7.59869910E+00 -1.51973982E+01  7.59869910E+00
  7.59869910E+00 -1.51973982E+01  7.59869910E+00  7.59869910E+00 -1.51973982E+01
  7.59869910E+00  7.59869910E+00 -1.51973982E+01  7.59869910E+00  7.59869910E+00
 -1.51973982E+01  7.59869910E+00  7.59869910E+00 -1.51973982E+01  7.59869910E+00
  7.59869910E+00 -1.51973982E+01  7.59869910E+00  7.59869910E+00 -1.51973982E+01
  7.59869910E+00  7.59869910E+00 -1.51973982E+01  7.59869910E+00  7.59869910E+00
 -1.51973982E+01  7.59869910E+00  7.59869910E+00 -1.51973982E+01  7.59869910E+00
  7.59869910E+00 -1.51973982E+01  7.59869910E+00  7.59869910E+00 -1.51973982E+01
  7.59869910E+00  7.59869910E+00 -1.51973982E+01  7.59869910E+00  7.59869910E+00
 -1.51973982E+01  7.59869910E+00  7.59869910E+00 -1.51973982E+01  7.59869910E+00
  7.59869910E+00 -1.51973982E+01  7.59869910E+00  7.59869910E+00 -1.51973982E+01
  7.59869910E+00  7.59869910E+00 -1.51973982E+01  7.59869910E+00  7.59869910E+00
 -1.51973982E+01  7.59869910E+00  7.59869910E+00 -1.51973982E+01  7.59869910E+00
  7.59869910E+00 -1.51973982E+01  7.59869910E+00  7.59869910E+00 -1.51973982E+01
  7.59869910E+00  7.59869910E+00 -1.51973982E+01  7.59869910E+00  7.59869910E+00
 -1.51973982E+01  7.59869910E+00  7.59869910E+00 -1.51973982E+01  7.59869910E+00
  7.59869910E+00 -1.51973982E+01  7.59869910E+00  7.59869910E+00 -1.51973982E+01
  7.59869910E+00  7.59869910E+00 -1.51973982E+01  7.59869910E+00  7.59869910E+00
 -1.51973982E+01  7.59869910E+00  7.59869910E+00 -1.51973982E+01  7.59869910E+00
  7.59869910E+00 -1.51973982E+01  7.59869910E+00  7.59869910E+00 -1.51973982E+01
  7.59869910E+00  7.59869910E+00 -1.51973982E+01  7.59869910E+00  7.59869910E+00
 -1.51973982E+01  7.59869910E+00  7.59869910E+00 -1.51973982E+01  7.59869910E+00
  7.59869910E+00 -1.51973982E+01  7.59869910E+00  7.59869910E+00 -1.51973982E+01
  7.59869910E+00  7.59869910E+00 -1.51973982E+01  7.59869910E+00  7.59869910E+00
 -1.51973982E+01  7.59869910E+00  7.59869910E+00 -1.51973982E+01  7.59869910E+00
  7.59869910E+00 -1.51973982E+01  7.59869910E+00  7.59869910E+00 -1.51973982E+01
  7.59869910E+00  7.59869910E+00 -1.51973982E+01  7.59869910E+00  7.59869910E+00
 -1.51973982E+01  7.59869910E+00  7.59869910E+00 -1.51973982E+01  7.59869910E+00
  7.59869910E+00 -1.51973982E+01  7.59869910E+00  7.59869910E+00 -1.51973982E+01
  7.59869910E+00  7.59869910E+00 -1.51973982E+01  7.59869910E+00  7.59869910E+00
 -1.51973982E+01  7.59869910E+00  7.59869910E+00 -1.51973982E+01  7.59869910E+00
  7.59869910E+00 -1.51973982E+01  7.59869910E+00  7.59869910E+00 -1.51973982E+01
  7.59869910E+00  7.59869910E+00 -1.51973982E+01  7.59869910E+00  7.59869910E+00
 -1.51973982E+01  7.59869910E+00  7.59869910E+00 -1.51973982E+01  7.59869910E+00
  7.59869910E+00 -1.51973982E+01  7.59869910E+00  7.59869910E+00 -1.51973982E+01
  7.59869910E+00  7.59869910E+00 -1.51973982E+01  7.59869910E+00  7.59869910E+00
 -1.51973982E+01  7.59869910E+00  7.59869910E+00 -1.51973982E+01  7.59869910E+00
  7.59869910E+00 -1.51973982E+01  7.59869910E+00  7.59869910E+00 -1.51973982E+01
  7.59869910E+00  7.59869910E+00 -1.51973982E+01  7.59869910E+00  7.59869910E+00
 -1.51973982E+01  7.59869910E+00  7.59869910E+00 -1.51973982E+01  7.59869910E+00
  7.59869910E+00 -1.51973982E+01  7.59869910E+00  7.59869910E+00 -1.51973982E+01
  7.59869910E+00  7.59869910E+00 -1.51973982E+01  7.59869910E+00  7.59869910E+00
 -1.51973982E+01  7.59869910E+00  7.59869910E+00 -1.51973982E+01  7.59869910E+00
  7.59869910E+00 -1.51973982E+01  7.59869910E+00  7.59869910E+00 -1.51973982E+01
  7.59869910E+00  7.59869910E+00 -1.51973982E+01  7.59869910E+00  7.59869910E+00
 -1.51973982E+01  7.59869910E+00  7.59869910E+00 -1.51973982E+01  7.59869910E+00
  7.59869910E+00 -1.51973982E+01  7.59869910E+00  7.59869910E+00 -1.51973982E+01
  7.59869910E+00  7.59869910E+00 -1.51973982E+01  7.59869910E+00  7.59869910E+00
 -1.51973982E+01  7.59869910E+00  7.59869910E+00 -1.51973982E+01  7.59869910E+00
  7.59869910E+00 -1.51973982E+01  7.59869910E+00  7.59869910E+00 -1.51973982E+01
  7.59869910E+00  7.59869910E+00 -1.51973982E+01  7.59869910E+00  7.59869910E+00
 -1.51973982E+01  7.59869910E+00  7.59869910E+00 -1.51973982E+01  7.59869910E+00
  7.59869910E+00 -1.51973982E+01  7.59869910E+00  7.59869910E+00 -1.51973982E+01
  7.59869910E+00  7.59869910E+00 -1.51973982E+01  7.59869910E+00  7.59869910E+00
 -1.51973982E+01  7.59869910E+00  7.59869910E+00 -1.51973982E+01  7.59869910E+00
  7.59869910E+00 -1.51973982E+01  7.59869910E+00  7.59869910E+00 -1.51973982E+01
  7.59869910E+00  7.59869910E+00 -1.51973982E+01  7.59869910E+00  7.59869910E+00
 -1.51973982E+01  7.59869910E+00  7.59869910E+00 -1.51973982E+01  7.59869910E+00
  7.59869910E+00 -1.51973982E+01  7.59869910E+00  7.59869910E+00 -1.51973982E+01
  7.59869910E+00  7.59869910E+00 -1.51973982E+01  7.59869910E+00  7.59869910E+00
 -1.51973982E+01  7.59869910E+00  7.59869910E+00 -1.51973982E+01  7.59869910E+00
  7.59869910E+00 -1.51973982E+01  7.59869910E+00  7.59869910E+00 -1.51973982E+01
  7.59869910E+00  7.59869910E+00 -1.51973982E+01  7.59869910E+00  7.59869910E+00
 -1.51973982E+01  7.59869910E+00  7.59869910E+00 -1.51973982E+01  7.59869910E+00
  7.59869910E+00 -1.51973982E+01  7.59869910E+00  7.59869910E+00 -1.51973982E+01
  7.59869910E+00  7.59869910E+00 -1.51973982E+01  7.59869910E+00  7.59869910E+00
 -1.51973982E+01  7.59869910E+00  7.59869910E+00 -1.51973982E+01  7.59869910E+00
  7.59869910E+00 -1.51973982E+01  7.59869910E+00  7.59869910E+00 -1.51973982E+01
  7.59869910E+00  7.59869910E+00 -1.51973982E+01  7.59869910E+00  7.59869910E+00
 -1.51973982E+01  7.59869910E+00  7.59869910E+00 -1.51973982E+01  7.59869910E+00
  7.59869910E+00 -1.51973982E+01  7.59869910E+00  7.59869910E+00 -1.51973982E+01
  7.59869910E+00  7.59869910E+00 -1.51973982E+01  7.59869910E+00  7.59869910E+00
 -1.51973982E+01  7.59869910E+00  7.59869910E+00 -1.51973982E+01  7.59869910E+00
  7.59869910E+00 -1.51973982E+01  7.59869910E+00  7.59869910E+00 -1.51973982E+01
  7.59869910E+00  7.59869910E+00 -1.51973982E+01  7.59869910E+00  7.59869910E+00
 -1.51973982E+01  7.59869910E+00  7.59869910E+00 -1.51973982E+01  7.59869910E+00
  7.59869910E+00 -1.51973982E+01  7.59869910E+00  7.59869910E+00 -1.51973982E+01
  7.59869910E+00  7.59869910E+00 -1.51973982E+01  7.59869910E+00  7.59869910E+00
 -1.51973982E+01  7.59869910E+00  7.59869910E+00 -1.51973982E+01  7.59869910E+00
  7.59869910E+00 -1.51973982E+01  7.59869910E+00  7.59869910E+00 -1.51973982E+01
  7.59869910E+00  7.59869910E+00 -1.51973982E+01  7.59869910E+00  7.59869910E+00
 -1.51973982E+01  7.59869910E+00  7.59869910E+00 -1.51973982E+01  7.59869910E+00
  7.59869910E+00 -1.51973982E+01  7.59869910E+00  7.59869910E+00 -1.51973982E+01
  7.59869910E+00  7.59869910E+00 -1.51973982E+01  7.59869910E+00  7.59869910E+00
 -1.51973982E+01  7.59869910E+00  7.59869910E+00 -1.51973982E+01  7.59869910E+00
  7.59869910E+00 -1.51973982E+01  7.59869910E+00  7.59869910E+00 -1.51973982E+01
  7.59869910E+00  7.59869910E+00 -1.51973982E+01  7.59869910E+00  7.59869910E+00
 -1.51973982E+01  7.59869910E+00  7.59869910E+00 -1.51973982E+01  7.59869910E+00
  7.59869910E+00 -1.51973982E+01  7.59869910E+00  7.59869910E+00 -1.51973982E+01
  7.59869910E+00  7.59869910E+00 -1.51973982E+01  7.59869910E+00  7.59869910E+00
 -1.51973982E+01  7.59869910E+00  7.59869910E+00 -1.51973982E+01  7.59869910E+00
  7.59869910E+00 -1.51973982E+01  7.59869910E+00  7.59869910E+00 -1.51973982E+01
  7.59869910E+00  7.59869910E+00 -1.51973982E+01  7.59869910E+00  7.59869910E+00
 -1.51973982E+01  7.59869910E+00  7.59869910E+00 -1.51973982E+01  7.59869910E+00
  7.59869910E+00 -1.51973982E+01  7.59869910E+00  7.59869910E+00 -1.51973982E+01
  7.59869910E+00  7.59869910E+00 -1.51973982E+01  7.59869910E+00  7.59869910E+00
 -1.51973982E+01  7.59869910E+00  7.59869910E+00 -1.51973982E+01  7.59869910E+00
  7.59869910E+00 -1.51973982E+01  7.59869910E+00  7.59869910E+00 -1.51973982E+01
  7.59869910E+00  7.59869910E+00 -1.51973982E+01  7.59869910E+00  7.59869910E+00
 -1.51973982E+01  7.59869910E+00  7.59869910E+00 -1.51973982E+01  7.59869910E+00
  7.59869910E+00 -1.51973982E+01  7.59869910E+00  7.59869910E+00 -1.51973982E+01
  7.59869910E+00  7.59869910E+00 -1.51973982E+01  7.59869910E+00  7.59869910E+00
 -1.51973982E+01  7.59869910E+00  7.59869910E+00 -1.51973982E+01  7.59869910E+00
  7.59869910E+00 -1.51973982E+01  7.59869910E+00  7.59869910E+00 -1.51973982E+01
  7.59869910E+00  7.59869910E+00 -1.51973982E+01  7.59869910E+00  7.59869910E+00
 -1.51973982E+01  7.59869910E+00  7.59869910E+00 -1.51973982E+01  7.59869910E+00
  7.59869910E+00 -1.51973982E+01  7.59869910E+00  7.59869910E+00 -1.51973982E+01
  7.59869910E+00  7.59869910E+00 -1.51973982E+01  7.59869910E+00  7.59869910E+00
 -1.51973982E+01  7.59869910E+00  7.59869910E+00 -1.51973982E+01  7.59869910E+00
  7.59869910E+00 -1.51973982E+01  7.59869910E+00  7.59869910E+00 -1.51973982E+01
  7.59869910E+00  7.59869910E+00 -1.51973982E+01  7.59869910E+00  7.59869910E+00
 -1.51973982E+01  7.59869910E+00  7.59869910E+00 -1.51973982E+01  7.59869910E+00
  7.59869910E+00 -1.51973982E+01  7.59869910E+00  7.59869910E+00 -1.51973982E+01
  7.59869910E+00  7.59869910E+00 -1.51973982E+01  7.59869910E+00  7.59869910E+00
 -1.51973982E+01  7.59869910E+00  7.59869910E+00 -1.51973982E+01  7.59869910E+00
  7.59869910E+00 -1.51973982E+01  7.59869910E+00  7.59869910E+00 -1.51973982E+01
  7.59869910E+00  7.59869910E+00 -1.51973982E+01  7.59869910E+00  7.59869910E+00
 -1.51973982E+01  7.59869910E+00  7.59869910E+00 -1.51973982E+01  7.59869910E+00
  7.59869910E+00 -1.51973982E+01  7.59869910E+00  7.59869910E+00 -1.51973982E+01
  7.59869910E+00  7.59869910E+00 -1.51973982E+01  7.59869910E+00  7.59869910E+00
 -1.51973982E+01  7.59869910E+00  7.59869910E+00 -1.51973982E+01  7.59869910E+00
  7.59869910E+00 -1.51973982E+01  7.59869910E+00  7.59869910E+00 -1.51973982E+01
  7.59869910E+00  7.59869910E+00 -1.51973982E+01  7.59869910E+00  7.59869910E+00
 -1.51973982E+01  7.59869910E+00  7.59869910E+00 -1.51973982E+01  7.59869910E+00
  7.59869910E+00 -1.51973982E+01  7.59869910E+00  7.59869910E+00 -1.51973982E+01
  7.59869910E+00  7.59869910E+00 -1.51973982E+01  7.59869910E+00  7.59869910E+00
 -1.51973982E+01  7.59869910E+00  7.59869910E+00 -1.51973982E+01  7.59869910E+00
  7.59869910E+00 -1.51973982E+01  7.59869910E+00  7.59869910E+00 -1.51973982E+01
  7.59869910E+00  7.59869910E+00 -1.51973982E+01  7.59869910E+00  7.59869910E+00
 -1.51973982E+01  7.59869910E+00  7.59869910E+00 -1.51973982E+01  7.59869910E+00
  7.59869910E+00 -1.51973982E+01  7.59869910E+00  7.59869910E+00 -1.51973982E+01
  7.59869910E+00  7.59869910E+00 -1.51973982E+01  7.59869910E+00  7.59869910E+00
 -1.51973982E+01  7.59869910E+00  7.59869910E+00 -1.51973982E+01  7.59869910E+00
  7.59869910E+00 -1.51973982E+01  7.59869910E+00  7.59869910E+00 -1.51973982E+01
  7.59869910E+00  7.59869910E+00 -1.51973982E+01  7.59869910E+00  7.59869910E+00
 -1.51973982E+01  7.59869910E+00  7.59869910E+00 -1.51973982E+01  7.59869910E+00
  7.59869910E+00 -1.51973982E+01  7.59869910E+00  7.59869910E+00 -1.51973982E+01
  7.59869910E+00  7.59869910E+00 -1.51973982E+01  7.59869910E+00  7.59869910E+00
 -1.51973982E+01  7.59869910E+00  7.59869910E+00 -1.51973982E+01  7.59869910E+00
  7.59869910E+00 -1.51973982E+01  7.59869910E+00  7.59869910E+00 -1.51973982E+01
  7.59869910E+00  7.59869910E+00 -1.51973982E+01  7.59869910E+00  7.59869910E+00
 -1.51973982E+01  7.59869910E+00  7.59869910E+00 -1.51973982E+01  7.59869910E+00
  7.59869910E+00 -1.51973982E+01  7.59869910E+00  7.59869910E+00 -1.51973982E+01
  7.59869910E+00  7.59869910E+00 -1.51973982E+01  7.59869910E+00  7.59869910E+00
 -1.51973982E+01  7.59869910E+00  7.59869910E+00 -1.51973982E+01  7.59869910E+00
  7.59869910E+00 -1.51973982E+01  7.59869910E+00  7.59869910E+00 -1.51973982E+01
  7.59869910E+00  7.59869910E+00 -1.51973982E+01  7.59869910E+00  7.59869910E+00
 -1.51973982E+01  7.59869910E+00  7.59869910E+00 -1.51973982E+01  7.59869910E+00
  7.59869910E+00 -1.51973982E+01  7.59869910E+00  7.59869910E+00 -1.51973982E+01
  7.59869910E+00  7.59869910E+00 -1.51973982E+01  7.59869910E+00  7.59869910E+00
 -1.51973982E+01  7.59869910E+00  7.59869910E+00 -1.51973982E+01  7.59869910E+00
  7.59869910E+00 -1.51973982E+01  7.59869910E+00  7.59869910E+00 -1.51973982E+01
  7.59869910E+00  7.59869910E+00 -1.51973982E+01  7.59869910E+00  7.59869910E+00
 -1.51973982E+01  7.59869910E+00  7.59869910E+00 -1.51973982E+01  7.59869910E+00
  7.59869910E+00 -1.51973982E+01  7.59869910E+00  7.59869910E+00 -1.51973982E+01
  7.59869910E+00  7.59869910E+00 -1.51973982E+01  7.59869910E+00  7.59869910E+00
 -1.51973982E+01  7.59869910E+00  7.59869910E+00 -1.51973982E+01  7.59869910E+00
  7.59869910E+00 -1.51973982E+01  7.59869910E+00  7.59869910E+00 -1.51973982E+01
  7.59869910E+00  7.59869910E+00 -1.51973982E+01  7.59869910E+00  7.59869910E+00
 -1.51973982E+01  7.59869910E+00  7.59869910E+00 -1.51973982E+01  7.59869910E+00
  7.59869910E+00 -1.51973982E+01  7.59869910E+00  7.59869910E+00 -1.51973982E+01
  7.59869910E+00  7.59869910E+00 -1.51973982E+01  7.59869910E+00  7.59869910E+00
 -1.51973982E+01  7.59869910E+00  7.59869910E+00 -1.51973982E+01  7.59869910E+00
  7.59869910E+00 -1.51973982E+01  7.59869910E+00  7.59869910E+00 -1.51973982E+01
  7.59869910E+00  7.59869910E+00 -1.51973982E+01  7.59869910E+00  7.59869910E+00
 -1.51973982E+01  7.59869910E+00  7.59869910E+00 -1.51973982E+01  7.59869910E+00
  7.59869910E+00 -1.51973982E+01  7.59869910E+00  7.59869910E+00 -1.51973982E+01
  7.59869910E+00  7.59869910E+00 -1.51973982E+01  7.59869910E+00  7.59869910E+00
 -1.51973982E+01  7.59869910E+00  7.59869910E+00 -1.51973982E+01  7.59869910E+00
  7.59869910E+00 -1.51973982E+01  7.59869910E+00  7.59869910E+00 -1.51973982E+01
  7.59869910E+00  7.59869910E+00 -1.51973982E+01  7.59869910E+00  7.59869910E+00
 -1.51973982E+01  7.59869910E+00  7.59869910E+00 -1.51973982E+01  7.59869910E+00
  7.59869910E+00 -1.51973982E+01  7.59869910E+00  7.59869910E+00 -1.51973982E+01
  7.59869910E+00  7.59869910E+00 -1.51973982E+01  7.59869910E+00  7.59869910E+00
 -1.51973982E+01  7.59869910E+00  7.59869910E+00 -1.51973982E+01  7.59869910E+00
  7.59869910E+00 -1.51973982E+01  7.59869910E+00  7.59869910E+00 -1.51973982E+01
  7.59869910E+00  7.59869910E+00 -1.51973982E+01  7.59869910E+00  7.59869910E+00
 -1.51973982E+01  7.59869910E+00  7.59869910E+00 -1.51973982E+01  7.59869910E+00
  7.59869910E+00 -1.51973982E+01  7.59869910E+00  7.59869910E+00 -1.51973982E+01
  7.59869910E+00  7.59869910E+00 -1.51973982E+01  7.59869910E+00  7.59869910E+00
 -1.51973982E+01  7.59869910E+00  7.59869910E+00 -1.51973982E+01  7.59869910E+00
  7.59869910E+00 -1.51973982E+01  7.59869910E+00  7.59869910E+00 -1.51973982E+01
  7.59869910E+00  7.59869910E+00 -1.51973982E+01  7.59869910E+00  7.59869910E+00
 -1.51973982E+01  7.59869910E+00  7.59869910E+00 -1.51973982E+01  7.59869910E+00
  7.59869910E+00 -1.51973982E+01  7.59869910E+00  7.59869910E+00 -1.51973982E+01
  7.59869910E+00  7.59869910E+00 -1.51973982E+01  7.59869910E+00  7.59869910E+00
 -1.51973982E+01  7.59869910E+00  7.59869910E+00 -1.51973982E+01  7.59869910E+00
  7.59869910E+00 -1.51973982E+01  7.59869910E+00  7.59869910E+00 -1.51973982E+01
  7.59869910E+00  7.59869910E+00 -1.51973982E+01  7.59869910E+00  7.59869910E+00
 -1.51973982E+01  7.59869910E+00  7.59869910E+00 -1.51973982E+01  7.59869910E+00
  7.59869910E+00 -1.51973982E+01  7.59869910E+00  7.59869910E+00 -1.51973982E+01
  7.59869910E+00  7.59869910E+00 -1.51973982E+01  7.59869910E+00  7.59869910E+00
 -1.51973982E+01  7.59869910E+00  7.59869910E+00 -1.51973982E+01  7.59869910E+00
  7.59869910E+00 -1.51973982E+01  7.59869910E+00  7.59869910E+00 -1.51973982E+01
  7.59869910E+00  7.59869910E+00 -1.51973982E+01  7.59869910E+00  7.59869910E+00
 -1.51973982E+01  7.59869910E+00  7.59869910E+00 -1.51973982E+01  7.59869910E+00
  7.59869910E+00 -1.51973982E+01  7.59869910E+00  7.59869910E+00 -1.51973982E+01
  7.59869910E+00  7.59869910E+00 -1.51973982E+01  7.59869910E+00  7.59869910E+00
 -1.51973982E+01  7.59869910E+00  7.59869910E+00 -1.51973982E+01  7.59869910E+00
  7.59869910E+00 -1.51973982E+01  7.59869910E+00  7.59869910E+00 -1.51973982E+01
  7.59869910E+00  7.59869910E+00 -1.51973982E+01  7.59869910E+00  7.59869910E+00
 -1.51973982E+01  7.59869910E+00  7.59869910E+00 -1.51973982E+01  7.59869910E+00
  7.59869910E+00 -1.51973982E+01  7.59869910E+00  7.59869910E+00 -1.51973982E+01
  7.59869910E+00  7.59869910E+00 -1.51973982E+01  7.59869910E+00  7.59869910E+00
 -1.51973982E+01  7.59869910E+00  7.59869910E+00 -1.51973982E+01  7.59869910E+00
  7.59869910E+00 -1.51973982E+01  7.59869910E+00  7.59869910E+00 -1.51973982E+01
  7.59869910E+00  7.59869910E+00 -1.51973982E+01  7.59869910E+00  7.59869910E+00
 -1.51973982E+01  7.59869910E+00  7.59869910E+00 -1.51973982E+01  7.59869910E+00
  7.59869910E+00 -1.51973982E+01  7.59869910E+00  7.59869910E+00 -1.51973982E+01
  7.59869910E+00  7.59869910E+00 -1.51973982E+01  7.59869910E+00  7.59869910E+00
 -1.51973982E+01  7.59869910E+00  7.59869910E+00 -1.51973982E+01  7.59869910E+00
  7.59869910E+00 -1.51973982E+01  7.59869910E+00  7.59869910E+00 -1.51973982E+01
  7.59869910E+00  7.59869910E+00 -1.51973982E+01  7.59869910E+00  7.59869910E+00
 -1.51973982E+01  7.59869910E+00  7.59869910E+00 -1.51973982E+01  7.59869910E+00
  7.59869910E+00 -1.51973982E+01  7.59869910E+00  7.59869910E+00 -1.51973982E+01
  7.59869910E+00  7.59869910E+00 -1.51973982E+01  7.59869910E+00  7.59869910E+00
 -1.51973982E+01  7.59869910E+00  7.59869910E+00 -1.51973982E+01  7.59869910E+00
  7.59869910E+00 -1.51973982E+01  7.59869910E+00  7.59869910E+00 -1.51973982E+01
  7.59869910E+00  7.59869910E+00 -1.51973982E+01  7.59869910E+00  7.59869910E+00
 -1.51973982E+01  7.59869910E+00  7.59869910E+00 -1.51973982E+01  7.59869910E+00
  7.59869910E+00 -1.51973982E+01  7.59869910E+00  7.59869910E+00 -1.51973982E+01
  7.59869910E+00  7.59869910E+00 -1.51973982E+01  7.59869910E+00  7.59869910E+00
 -1.51973982E+01  7.59869910E+00  7.59869910E+00 -1.51973982E+01  7.59869910E+00
  7.59869910E+00 -1.51973982E+01  7.59869910E+00  7.59869910E+00 -1.51973982E+01
  7.59869910E+00  7.59869910E+00 -1.51973982E+01  7.59869910E+00  7.59869910E+00
 -1.51973982E+01  7.59869910E+00  7.59869910E+00 -1.51973982E+01  7.59869910E+00
  7.59869910E+00 -1.51973982E+01  7.59869910E+00  7.59869910E+00 -1.51973982E+01
  7.59869910E+00  7.59869910E+00 -1.51973982E+01  7.59869910E+00  7.59869910E+00
 -1.51973982E+01  7.59869910E+00  7.59869910E+00 -1.51973982E+01  7.59869910E+00
  7.59869910E+00 -1.51973982E+01  7.59869910E+00  7.59869910E+00 -1.51973982E+01
  7.59869910E+00  7.59869910E+00 -1.51973982E+01  7.59869910E+00  7.59869910E+00
 -1.51973982E+01  7.59869910E+00  7.59869910E+00 -1.51973982E+01  7.59869910E+00
  7.59869910E+00 -1.51973982E+01  7.59869910E+00  7.59869910E+00 -1.51973982E+01
  7.59869910E+00  7.59869910E+00 -1.51973982E+01  7.59869910E+00  7.59869910E+00
 -1.51973982E+01  7.59869910E+00  7.59869910E+00 -1.51973982E+01  7.59869910E+00
  7.59869910E+00 -1.51973982E+01  7.59869910E+00  7.59869910E+00 -1.51973982E+01
  7.59869910E+00  7.59869910E+00 -1.51973982E+01  7.59869910E+00  7.59869910E+00
 -1.51973982E+01  7.59869910E+00  7.59869910E+00 -1.51973982E+01  7.59869910E+00
  7.59869910E+00 -1.51973982E+01  7.59869910E+00  7.59869910E+00 -1.51973982E+01
  7.59869910E+00  7.59869910E+00 -1.51973982E+01  7.59869910E+00  7.59869910E+00
 -1.51973982E+01  7.59869910E+00  7.59869910E+00 -1.51973982E+01  7.59869910E+00
  7.59869910E+00 -1.51973982E+01  7.59869910E+00  7.59869910E+00 -1.51973982E+01
  7.59869910E+00  7.59869910E+00 -1.51973982E+01  7.59869910E+00  7.59869910E+00
 -1.51973982E+01  7.59869910E+00  7.59869910E+00 -1.51973982E+01  7.59869910E+00
  7.59869910E+00 -1.51973982E+01  7.59869910E+00  7.59869910E+00 -1.51973982E+01
  7.59869910E+00  7.59869910E+00 -1.51973982E+01  7.59869910E+00  7.59869910E+00
 -1.51973982E+01  7.59869910E+00  7.59869910E+00 -1.51973982E+01  7.59869910E+00
  7.59869910E+00 -1.51973982E+01  7.59869910E+00  7.59869910E+00 -1.51973982E+01
  7.59869910E+00  7.59869910E+00 -1.51973982E+01  7.59869910E+00  7.59869910E+00
 -1.51973982E+01  7.59869910E+00  7.59869910E+00 -1.51973982E+01  7.59869910E+00
  7.59869910E+00 -1.51973982E+01  7.59869910E+00  7.59869910E+00 -1.51973982E+01
  7.59869910E+00  7.59869910E+00 -1.51973982E+01  7.59869910E+00  7.59869910E+00
 -1.51973982E+01  7.59869910E+00  7.59869910E+00 -1.51973982E+01  7.59869910E+00
  7.59869910E+00 -1.51973982E+01  7.59869910E+00  7.59869910E+00 -1.51973982E+01
  7.59869910E+00  7.59869910E+00 -1.51973982E+01  7.59869910E+00  7.59869910E+00
 -1.51973982E+01  7.59869910E+00  7.59869910E+00 -1.51973982E+01  7.59869910E+00
  7.59869910E+00 -1.51973982E+01  7.59869910E+00  7.59869910E+00 -1.51973982E+01
  7.59869910E+00  7.59869910E+00 -1.51973982E+01  7.59869910E+00  7.59869910E+00
 -1.51973982E+01  7.59869910E+00  7.59869910E+00 -1.51973982E+01  7.59869910E+00
  7.59869910E+00 -1.51973982E+01  7.59869910E+00  7.59869910E+00 -1.51973982E+01
  7.59869910E+00  7.59869910E+00 -1.51973982E+01  7.59869910E+00  7.59869910E+00
 -1.51973982E+01  7.59869910E+00  7.59869910E+00 -1.51973982E+01  7.59869910E+00
  7.59869910E+00 -1.51973982E+01  7.59869910E+00  7.59869910E+00 -1.51973982E+01
  7.59869910E+00  7.59869910E+00 -1.51973982E+01  7.59869910E+00  7.59869910E+00
 -1.51973982E+01  7.59869910E+00  7.59869910E+00 -1.51973982E+01  7.59869910E+00
  7.59869910E+00 -1.51973982E+01  7.59869910E+00  7.59869910E+00 -1.51973982E+01
  7.59869910E+00  7.59869910E+00 -1.51973982E+01  7.59869910E+00  7.59869910E+00
 -1.51973982E+01  7.59869910E+00  7.59869910E+00 -1.51973982E+01  7.59869910E+00
  7.59869910E+00 -1.51973982E+01  7.59869910E+00  7.59869910E+00 -1.51973982E+01
  7.59869910E+00  7.59869910E+00 -1.51973982E+01  7.59869910E+00  7.59869910E+00
 -1.51973982E+01  7.59869910E+00  7.59869910E+00 -1.51973982E+01  7.59869910E+00
  7.59869910E+00 -1.51973982E+01  7.59869910E+00  7.59869910E+00 -1.51973982E+01
  7.59869910E+00  7.59869910E+00 -1.51973982E+01  7.59869910E+00  7.59869910E+00
 -1.51973982E+01  7.59869910E+00  7.59869910E+00 -1.51973982E+01  7.59869910E+00
  7.59869910E+00 -1.51973982E+01  7.59869910E+00  7.59869910E+00 -1.51973982E+01
  7.59869910E+00  7.59869910E+00 -1.51973982E+01  7.59869910E+00  7.59869910E+00
 -1.51973982E+01  7.59869910E+00  7.59869910E+00 -1.51973982E+01  7.59869910E+00
  7.59869910E+00 -1.51973982E+01  7.59869910E+00  7.59869910E+00 -1.51973982E+01
  7.59869910E+00  7.59869910E+00 -1.51973982E+01  7.59869910E+00  7.59869910E+00
 -1.51973982E+01  7.59869910E+00  7.59869910E+00 -1.51973982E+01  7.59869910E+00
  7.59869910E+00 -1.51973982E+01  7.59869910E+00  7.59869910E+00 -1.51973982E+01
  7.59869910E+00  7.59869910E+00 -1.51973982E+01  7.59869910E+00  7.59869910E+00
 -1.51973982E+01  7.59869910E+00  7.59869910E+00 -1.51973982E+01  7.59869910E+00
  7.59869910E+00 -1.51973982E+01  7.59869910E+00  7.59869910E+00 -1.51973982E+01
  7.59869910E+00  7.59869910E+00 -1.51973982E+01  7.59869910E+00  7.59869910E+00
 -1.51973982E+01  7.59869910E+00  7.59869910E+00 -1.51973982E+01  7.59869910E+00
  7.59869910E+00 -1.51973982E+01  7.59869910E+00  7.59869910E+00 -1.51973982E+01
  7.59869910E+00  7.59869910E+00 -1.51973982E+01  7.59869910E+00  7.59869910E+00
 -1.51973982E+01  7.59869910E+00  7.59869910E+00 -1.51973982E+01  7.59869910E+00
  7.59869910E+00 -1.51973982E+01  7.59869910E+00  7.59869910E+00 -1.51973982E+01
  7.59869910E+00  7.59869910E+00 -1.51973982E+01  7.59869910E+00  7.59869910E+00
 -1.51973982E+01  7.59869910E+00  7.59869910E+00 -1.51973982E+01  7.59869910E+00
  7.59869910E+00 -1.51973982E+01  7.59869910E+00  7.59869910E+00 -1.51973982E+01
  7.59869910E+00  7.59869910E+00 -1.51973982E+01  7.59869910E+00  7.59869910E+00
 -1.51973982E+01  7.59869910E+00  7.59869910E+00 -1.51973982E+01  7.59869910E+00
  7.59869910E+00 -1.51973982E+01  7.59869910E+00  7.59869910E+00 -1.51973982E+01
  7.59869910E+00  7.59869910E+00 -1.51973982E+01  7.59869910E+00  7.59869910E+00
 -1.51973982E+01  7.59869910E+00  7.59869910E+00 -1.51973982E+01  7.59869910E+00
  7.59869910E+00 -1.51973982E+01  7.59869910E+00  7.59869910E+00 -1.51973982E+01
  7.59869910E+00  7.59869910E+00 -1.51973982E+01  7.59869910E+00  7.59869910E+00
 -1.51973982E+01  7.59869910E+00  7.59869910E+00 -1.51973982E+01  7.59869910E+00
  7.59869910E+00 -1.51973982E+01  7.59869910E+00  7.59869910E+00 -1.51973982E+01
  7.59869910E+00  7.59869910E+00 -1.51973982E+01  7.59869910E+00  7.59869910E+00
 -1.51973982E+01  7.59869910E+00  7.59869910E+00 -1.51973982E+01  7.59869910E+00
  7.59869910E+00 -1.51973982E+01  7.59869910E+00  7.59869910E+00 -1.51973982E+01
  7.59869910E+00  7.59869910E+00 -1.51973982E+01  7.59869910E+00  7.59869910E+00
 -1.51973982E+01  7.59869910E+00  7.59869910E+00 -1.51973982E+01  7.59869910E+00
  7.59869910E+00 -1.51973982E+01  7.59869910E+00  7.59869910E+00 -1.51973982E+01
  7.59869910E+00  7.59869910E+00 -1.51973982E+01  7.59869910E+00  7.59869910E+00
 -1.51973982E+01  7.59869910E+00  7.59869910E+00 -1.51973982E+01  7.59869910E+00
  7.59869910E+00 -1.51973982E+01  7.59869910E+00  7.59869910E+00 -1.51973982E+01
  7.59869910E+00  7.59869910E+00 -1.51973982E+01  7.59869910E+00  7.59869910E+00
 -1.51973982E+01  7.59869910E+00  7.59869910E+00 -1.51973982E+01  7.59869910E+00
  7.59869910E+00 -1.51973982E+01  7.59869910E+00  7.59869910E+00 -1.51973982E+01
  7.59869910E+00  7.59869910E+00 -1.51973982E+01  7.59869910E+00  7.59869910E+00
 -1.51973982E+01  7.59869910E+00  7.59869910E+00 -1.51973982E+01  7.59869910E+00
  7.59869910E+00 -1.51973982E+01  7.59869910E+00  7.59869910E+00 -1.51973982E+01
  7.59869910E+00  7.59869910E+00 -1.51973982E+01  7.59869910E+00  7.59869910E+00
 -1.51973982E+01  7.59869910E+00  7.59869910E+00 -1.51973982E+01  7.59869910E+00
  7.59869910E+00 -1.51973982E+01  7.59869910E+00  7.59869910E+00 -1.51973982E+01
  7.59869910E+00  7.59869910E+00 -1.51973982E+01  7.59869910E+00  7.59869910E+00
 -1.51973982E+01  7.59869910E+00  7.59869910E+00 -1.51973982E+01  7.59869910E+00
  7.59869910E+00 -1.51973982E+01  7.59869910E+00  7.59869910E+00 -1.51973982E+01
  7.59869910E+00  7.59869910E+00 -1.51973982E+01  7.59869910E+00  7.59869910E+00
 -1.51973982E+01  7.59869910E+00  7.59869910E+00 -1.51973982E+01  7.59869910E+00
  7.59869910E+00 -1.51973982E+01  7.59869910E+00  7.59869910E+00 -1.51973982E+01
  7.59869910E+00  7.59869910E+00 -1.51973982E+01  7.59869910E+00  7.59869910E+00
 -1.51973982E+01  7.59869910E+00  7.59869910E+00 -1.51973982E+01  7.59869910E+00
  7.59869910E+00 -1.51973982E+01  7.59869910E+00  7.59869910E+00 -1.51973982E+01
  7.59869910E+00  7.59869910E+00 -1.51973982E+01  7.59869910E+00  7.59869910E+00
 -1.51973982E+01  7.59869910E+00  7.59869910E+00 -1.51973982E+01  7.59869910E+00
  7.59869910E+00 -1.51973982E+01  7.59869910E+00  7.59869910E+00 -1.51973982E+01
  7.59869910E+00  7.59869910E+00 -1.51973982E+01  7.59869910E+00  7.59869910E+00
 -1.51973982E+01  7.59869910E+00  7.59869910E+00 -1.51973982E+01  7.59869910E+00
  7.59869910E+00 -1.51973982E+01  7.59869910E+00  7.59869910E+00 -1.51973982E+01
  7.59869910E+00  7.59869910E+00 -1.51973982E+01  7.59869910E+00  7.59869910E+00
 -1.51973982E+01  7.59869910E+00  7.59869910E+00 -1.51973982E+01  7.59869910E+00
  7.59869910E+00 -1.51973982E+01  7.59869910E+00  7.59869910E+00 -1.51973982E+01
  7.59869910E+00  7.59869910E+00 -1.51973982E+01  7.59869910E+00  7.59869910E+00
 -1.51973982E+01  7.59869910E+00  7.59869910E+00 -1.51973982E+01  7.59869910E+00
  7.59869910E+00 -1.51973982E+01  7.59869910E+00  7.59869910E+00 -1.51973982E+01
  7.59869910E+00  7.59869910E+00 -1.51973982E+01  7.59869910E+00  7.59869910E+00
 -1.51973982E+01  7.59869910E+00  7.59869910E+00 -1.51973982E+01  7.59869910E+00
  7.59869910E+00 -1.51973982E+01  7.59869910E+00  7.59869910E+00 -1.51973982E+01
  7.59869910E+00  7.59869910E+00 -1.51973982E+01  7.59869910E+00  7.59869910E+00
 -1.51973982E+01  7.59869910E+00  7.59869910E+00 -1.51973982E+01  7.59869910E+00
  7.59869910E+00 -1.51973982E+01  7.59869910E+00  7.59869910E+00 -1.51973982E+01
  7.59869910E+00  7.59869910E+00 -1.51973982E+01  7.59869910E+00  7.59869910E+00
 -1.51973982E+01  7.59869910E+00  7.59869910E+00 -1.51973982E+01  7.59869910E+00
  7.59869910E+00 -1.51973982E+01  7.59869910E+00  7.59869910E+00 -1.51973982E+01
  7.59869910E+00  7.59869910E+00 -1.51973982E+01  7.59869910E+00  7.59869910E+00
 -1.51973982E+01  7.59869910E+00  7.59869910E+00 -1.51973982E+01  7.59869910E+00
  7.59869910E+00 -1.51973982E+01  7.59869910E+00  7.59869910E+00 -1.51973982E+01
  7.59869910E+00  7.59869910E+00 -1.51973982E+01  7.59869910E+00  7.59869910E+00
 -1.51973982E+01  7.59869910E+00  7.59869910E+00 -1.51973982E+01  7.59869910E+00
  7.59869910E+00 -1.51973982E+01  7.59869910E+00  7.59869910E+00 -1.51973982E+01
  7.59869910E+00  7.59869910E+00 -1.51973982E+01  7.59869910E+00  7.59869910E+00
 -1.51973982E+01  7.59869910E+00  7.59869910E+00 -1.51973982E+01  7.59869910E+00
  7.59869910E+00 -1.51973982E+01  7.59869910E+00  7.59869910E+00 -1.51973982E+01
  7.59869910E+00  7.59869910E+00 -1.51973982E+01  7.59869910E+00  7.59869910E+00
 -1.51973982E+01  7.59869910E+00  7.59869910E+00 -1.51973982E+01  7.59869910E+00
  7.59869910E+00 -1.51973982E+01  7.59869910E+00  7.59869910E+00 -1.51973982E+01
  7.59869910E+00  7.59869910E+00 -1.51973982E+01  7.59869910E+00  7.59869910E+00
 -1.51973982E+01  7.59869910E+00  7.59869910E+00 -1.51973982E+01  7.59869910E+00
  7.59869910E+00 -1.51973982E+01  7.59869910E+00  7.59869910E+00 -1.51973982E+01
  7.59869910E+00  7.59869910E+00 -1.51973982E+01  7.59869910E+00  7.59869910E+00
 -1.51973982E+01  7.59869910E+00  7.59869910E+00 -1.51973982E+01  7.59869910E+00
  7.59869910E+00 -1.51973982E+01  7.59869910E+00  7.59869910E+00 -1.51973982E+01
  7.59869910E+00  7.59869910E+00 -1.51973982E+01  7.59869910E+00  7.59869910E+00
 -1.51973982E+01  7.59869910E+00  7.59869910E+00 -1.51973982E+01  7.59869910E+00
  7.59869910E+00 -1.51973982E+01  7.59869910E+00  7.59869910E+00 -1.51973982E+01
  7.59869910E+00  7.59869910E+00 -1.51973982E+01  7.59869910E+00  7.59869910E+00
 -1.51973982E+01  7.59869910E+00  7.59869910E+00 -1.51973982E+01  7.59869910E+00
  7.59869910E+00 -1.51973982E+01  7.59869910E+00  7.59869910E+00 -1.51973982E+01
  7.59869910E+00  7.59869910E+00 -1.51973982E+01  7.59869910E+00  7.59869910E+00
 -1.51973982E+01  7.59869910E+00  7.59869910E+00 -1.51973982E+01  7.59869910E+00
  7.59869910E+00 -1.51973982E+01  7.59869910E+00  7.59869910E+00 -1.51973982E+01
  7.59869910E+00  7.59869910E+00 -1.51973982E+01  7.59869910E+00  7.59869910E+00
 -1.51973982E+01  7.59869910E+00  7.59869910E+00 -1.51973982E+01  7.59869910E+00
  7.59869910E+00 -1.51973982E+01  7.59869910E+00  7.59869910E+00 -1.51973982E+01
  7.59869910E+00  7.59869910E+00 -1.51973982E+01  7.59869910E+00  7.59869910E+00
 -1.51973982E+01  7.59869910E+00  7.59869910E+00 -1.51973982E+01  7.59869910E+00
  7.59869910E+00 -1.51973982E+01  7.59869910E+00  7.59869910E+00 -1.51973982E+01
  7.59869910E+00  7.59869910E+00 -1.51973982E+01  7.59869910E+00  7.59869910E+00
 -1.51973982E+01  7.59869910E+00  7.59869910E+00 -1.51973982E+01  7.59869910E+00
  7.59869910E+00 -1.51973982E+01  7.59869910E+00  7.59869910E+00 -1.51973982E+01
  7.59869910E+00  7.59869910E+00 -1.51973982E+01  7.59869910E+00  7.59869910E+00
 -1.51973982E+01  7.59869910E+00  7.59869910E+00 -1.51973982E+01  7.59869910E+00
  7.59869910E+00 -1.51973982E+01  7.59869910E+00  7.59869910E+00 -1.51973982E+01
  7.59869910E+00  7.59869910E+00 -1.51973982E+01  7.59869910E+00  7.59869910E+00
 -1.51973982E+01  7.59869910E+00  7.59869910E+00 -1.51973982E+01  7.59869910E+00
  7.59869910E+00 -1.51973982E+01  7.59869910E+00  7.59869910E+00 -1.51973982E+01
  7.59869910E+00  7.59869910E+00 -1.51973982E+01  7.59869910E+00  7.59869910E+00
 -1.51973982E+01  7.59869910E+00  7.59869910E+00 -1.51973982E+01  7.59869910E+00
  7.59869910E+00 -1.51973982E+01  7.59869910E+00  7.59869910E+00 -1.51973982E+01
  7.59869910E+00  7.59869910E+00 -1.51973982E+01  7.59869910E+00  7.59869910E+00
 -1.51973982E+01  7.59869910E+00  7.59869910E+00 -1.51973982E+01  7.59869910E+00
  7.59869910E+00 -1.51973982E+01  7.59869910E+00  7.59869910E+00 -1.51973982E+01
  7.59869910E+00  7.59869910E+00 -1.51973982E+01  7.59869910E+00  7.59869910E+00
 -1.51973982E+01  7.59869910E+00  7.59869910E+00 -1.51973982E+01  7.59869910E+00
  7.59869910E+00 -1.51973982E+01  7.59869910E+00  7.59869910E+00 -1.51973982E+01
  7.59869910E+00  7.59869910E+00 -1.51973982E+01  7.59869910E+00  7.59869910E+00
 -1.51973982E+01  7.59869910E+00  7.59869910E+00 -1.51973982E+01  7.59869910E+00
  7.59869910E+00 -1.51973982E+01  7.59869910E+00  7.59869910E+00 -1.51973982E+01
  7.59869910E+00  7.59869910E+00 -1.51973982E+01  7.59869910E+00  7.59869910E+00
 -1.51973982E+01  7.59869910E+00  7.59869910E+00 -1.51973982E+01  7.59869910E+00
  7.59869910E+00 -1.51973982E+01  7.59869910E+00  7.59869910E+00 -1.51973982E+01
  7.59869910E+00  7.59869910E+00 -1.51973982E+01  7.59869910E+00  7.59869910E+00
 -1.51973982E+01  7.59869910E+00  7.59869910E+00 -1.51973982E+01  7.59869910E+00
  7.59869910E+00 -1.51973982E+01  7.59869910E+00  7.59869910E+00 -1.51973982E+01
  7.59869910E+00  7.59869910E+00 -1.51973982E+01  7.59869910E+00  7.59869910E+00
 -1.51973982E+01  7.59869910E+00  7.59869910E+00 -1.51973982E+01  7.59869910E+00
  7.59869910E+00 -1.51973982E+01  7.59869910E+00  7.59869910E+00 -1.51973982E+01
  7.59869910E+00  7.59869910E+00 -1.51973982E+01  7.59869910E+00  7.59869910E+00
 -1.51973982E+01  7.59869910E+00  7.59869910E+00 -1.51973982E+01  7.59869910E+00
  7.59869910E+00 -1.51973982E+01  7.59869910E+00  7.59869910E+00 -1.51973982E+01
  7.59869910E+00  7.59869910E+00 -1.51973982E+01  7.59869910E+00  7.59869910E+00
 -1.51973982E+01  7.59869910E+00  7.59869910E+00 -1.51973982E+01  7.59869910E+00
  7.59869910E+00 -1.51973982E+01  7.59869910E+00  7.59869910E+00 -1.51973982E+01
  7.59869910E+00  7.59869910E+00 -1.51973982E+01  7.59869910E+00  7.59869910E+00
 -1.51973982E+01  7.59869910E+00  7.59869910E+00 -1.51973982E+01  7.59869910E+00
  7.59869910E+00 -1.51973982E+01  7.59869910E+00  7.59869910E+00 -1.51973982E+01
  7.59869910E+00  7.59869910E+00 -1.51973982E+01  7.59869910E+00  7.59869910E+00
 -1.51973982E+01  7.59869910E+00  7.59869910E+00 -1.51973982E+01  7.59869910E+00
  7.59869910E+00 -1.51973982E+01  7.59869910E+00  7.59869910E+00 -1.51973982E+01
  7.59869910E+00  7.59869910E+00 -1.51973982E+01  7.59869910E+00  7.59869910E+00
 -1.51973982E+01  7.59869910E+00  7.59869910E+00 -1.51973982E+01  7.59869910E+00
  7.59869910E+00 -1.51973982E+01  7.59869910E+00  7.59869910E+00 -1.51973982E+01
  7.59869910E+00  7.59869910E+00 -1.51973982E+01  7.59869910E+00  7.59869910E+00
 -1.51973982E+01  7.59869910E+00  7.59869910E+00 -1.51973982E+01  7.59869910E+00
  7.59869910E+00 -1.51973982E+01  7.59869910E+00  7.59869910E+00 -1.51973982E+01
  7.59869910E+00  7.59869910E+00 -1.51973982E+01  7.59869910E+00  7.59869910E+00
 -1.51973982E+01  7.59869910E+00  7.59869910E+00 -1.51973982E+01  7.59869910E+00
  7.59869910E+00 -1.51973982E+01  7.59869910E+00  7.59869910E+00 -1.51973982E+01
  7.59869910E+00  7.59869910E+00 -1.51973982E+01  7.59869910E+00  7.59869910E+00
 -1.51973982E+01  7.59869910E+00  7.59869910E+00 -1.51973982E+01  7.59869910E+00
  7.59869910E+00 -1.51973982E+01  7.59869910E+00  7.59869910E+00 -1.51973982E+01
  7.59869910E+00  7.59869910E+00 -1.51973982E+01  7.59869910E+00  7.59869910E+00
 -1.51973982E+01  7.59869910E+00  7.59869910E+00 -1.51973982E+01  7.59869910E+00
  7.59869910E+00 -1.51973982E+01  7.59869910E+00  7.59869910E+00 -1.51973982E+01
  7.59869910E+00  7.59869910E+00 -1.51973982E+01  7.59869910E+00  7.59869910E+00
 -1.51973982E+01  7.59869910E+00  7.59869910E+00 -1.51973982E+01  7.59869910E+00
  7.59869910E+00 -1.51973982E+01  7.59869910E+00  7.59869910E+00 -1.51973982E+01
  7.59869910E+00  7.59869910E+00 -1.51973982E+01  7.59869910E+00  7.59869910E+00
 -1.51973982E+01  7.59869910E+00  7.59869910E+00 -1.51973982E+01  7.59869910E+00
  7.59869910E+00 -1.51973982E+01  7.59869910E+00  7.59869910E+00 -1.51973982E+01
  7.59869910E+00  7.59869910E+00 -1.51973982E+01  7.59869910E+00  7.59869910E+00
 -1.51973982E+01  7.59869910E+00  7.59869910E+00 -1.51973982E+01  7.59869910E+00
  7.59869910E+00 -1.51973982E+01  7.59869910E+00  7.59869910E+00 -1.51973982E+01
  7.59869910E+00  7.59869910E+00 -1.51973982E+01  7.59869910E+00  7.59869910E+00
 -1.51973982E+01  7.59869910E+00  7.59869910E+00 -1.51973982E+01  7.59869910E+00
  7.59869910E+00 -1.51973982E+01  7.59869910E+00  7.59869910E+00 -1.51973982E+01
  7.59869910E+00  7.59869910E+00 -1.51973982E+01  7.59869910E+00  7.59869910E+00
 -1.51973982E+01  7.59869910E+00  7.59869910E+00 -1.51973982E+01  7.59869910E+00
  7.59869910E+00 -1.51973982E+01  7.59869910E+00  7.59869910E+00 -1.51973982E+01
  7.59869910E+00  7.59869910E+00 -1.51973982E+01  7.59869910E+00  7.59869910E+00
 -1.51973982E+01  7.59869910E+00  7.59869910E+00 -1.51973982E+01  7.59869910E+00
  7.59869910E+00 -1.51973982E+01  7.59869910E+00  7.59869910E+00 -1.51973982E+01
  7.59869910E+00  7.59869910E+00 -1.51973982E+01  7.59869910E+00  7.59869910E+00
 -1.51973982E+01  7.59869910E+00  7.59869910E+00 -1.51973982E+01  7.59869910E+00
  7.59869910E+00 -1.51973982E+01  7.59869910E+00  7.59869910E+00 -1.51973982E+01
  7.59869910E+00  7.59869910E+00 -1.51973982E+01  7.59869910E+00  7.59869910E+00
 -1.51973982E+01  7.59869910E+00  7.59869910E+00 -1.51973982E+01  7.59869910E+00
  7.59869910E+00 -1.51973982E+01  7.59869910E+00  7.59869910E+00 -1.51973982E+01
  7.59869910E+00  7.59869910E+00 -1.51973982E+01  7.59869910E+00  7.59869910E+00
 -1.51973982E+01  7.59869910E+00  7.59869910E+00 -1.51973982E+01  7.59869910E+00
  7.59869910E+00 -1.51973982E+01  7.59869910E+00  7.59869910E+00 -1.51973982E+01
  7.59869910E+00  7.59869910E+00 -1.51973982E+01  7.59869910E+00  7.59869910E+00
 -1.51973982E+01  7.59869910E+00  7.59869910E+00 -1.51973982E+01  7.59869910E+00
  7.59869910E+00 -1.51973982E+01  7.59869910E+00  7.59869910E+00 -1.51973982E+01
  7.59869910E+00  7.59869910E+00 -1.51973982E+01  7.59869910E+00  7.59869910E+00
 -1.51973982E+01  7.59869910E+00  7.59869910E+00 -1.51973982E+01  7.59869910E+00
  7.59869910E+00 -1.51973982E+01  7.59869910E+00  7.59869910E+00 -1.51973982E+01
  7.59869910E+00  7.59869910E+00 -1.51973982E+01  7.59869910E+00  7.59869910E+00
 -1.51973982E+01  7.59869910E+00  7.59869910E+00 -1.51973982E+01  7.59869910E+00
  7.59869910E+00 -1.51973982E+01  7.59869910E+00  7.59869910E+00 -1.51973982E+01
  7.59869910E+00  7.59869910E+00 -1.51973982E+01  7.59869910E+00  7.59869910E+00
 -1.51973982E+01  7.59869910E+00  7.59869910E+00 -1.51973982E+01  7.59869910E+00
  7.59869910E+00 -1.51973982E+01  7.59869910E+00  7.59869910E+00 -1.51973982E+01
  7.59869910E+00  7.59869910E+00 -1.51973982E+01  7.59869910E+00  7.59869910E+00
 -1.51973982E+01  7.59869910E+00  7.59869910E+00 -1.51973982E+01  7.59869910E+00
  7.59869910E+00 -1.51973982E+01  7.59869910E+00  7.59869910E+00 -1.51973982E+01
  7.59869910E+00  7.59869910E+00 -1.51973982E+01  7.59869910E+00  7.59869910E+00
 -1.51973982E+01  7.59869910E+00  7.59869910E+00 -1.51973982E+01  7.59869910E+00
  7.59869910E+00 -1.51973982E+01  7.59869910E+00  7.59869910E+00 -1.51973982E+01
  7.59869910E+00  7.59869910E+00 -1.51973982E+01  7.59869910E+00  7.59869910E+00
 -1.51973982E+01  7.59869910E+00  7.59869910E+00 -1.51973982E+01  7.59869910E+00
  7.59869910E+00 -1.51973982E+01  7.59869910E+00  7.59869910E+00 -1.51973982E+01
  7.59869910E+00  7.59869910E+00 -1.51973982E+01  7.59869910E+00  7.59869910E+00
 -1.51973982E+01  7.59869910E+00  7.59869910E+00 -1.51973982E+01  7.59869910E+00
  7.59869910E+00 -1.51973982E+01  7.59869910E+00  7.59869910E+00 -1.51973982E+01
  7.59869910E+00  7.59869910E+00 -1.51973982E+01  7.59869910E+00  7.59869910E+00
 -1.51973982E+01  7.59869910E+00  7.59869910E+00 -1.51973982E+01  7.59869910E+00
  7.59869910E+00 -1.51973982E+01  7.59869910E+00  7.59869910E+00 -1.51973982E+01
  7.59869910E+00  7.59869910E+00 -1.51973982E+01  7.59869910E+00  7.59869910E+00
 -1.51973982E+01  7.59869910E+00  7.59869910E+00 -1.51973982E+01  7.59869910E+00
  7.59869910E+00 -1.51973982E+01  7.59869910E+00  7.59869910E+00 -1.51973982E+01
  7.59869910E+00  7.59869910E+00 -1.51973982E+01  7.59869910E+00  7.59869910E+00
 -1.51973982E+01  7.59869910E+00  7.59869910E+00 -1.51973982E+01  7.59869910E+00
  7.59869910E+00 -1.51973982E+01  7.59869910E+00  7.59869910E+00 -1.51973982E+01
  7.59869910E+00  7.59869910E+00 -1.51973982E+01  7.59869910E+00  7.59869910E+00
 -1.51973982E+01  7.59869910E+00  7.59869910E+00 -1.51973982E+01  7.59869910E+00
  7.59869910E+00 -1.51973982E+01  7.59869910E+00  7.59869910E+00 -1.51973982E+01
  7.59869910E+00  7.59869910E+00 -1.51973982E+01  7.59869910E+00  7.59869910E+00
 -1.51973982E+01  7.59869910E+00  7.59869910E+00 -1.51973982E+01  7.59869910E+00
  7.59869910E+00 -1.51973982E+01  7.59869910E+00  7.59869910E+00 -1.51973982E+01
  7.59869910E+00  7.59869910E+00 -1.51973982E+01  7.59869910E+00  7.59869910E+00
 -1.51973982E+01  7.59869910E+00  7.59869910E+00 -1.51973982E+01  7.59869910E+00
  7.59869910E+00 -1.51973982E+01  7.59869910E+00  7.59869910E+00 -1.51973982E+01
  7.59869910E+00  7.59869910E+00 -1.51973982E+01  7.59869910E+00  7.59869910E+00
 -1.51973982E+01  7.59869910E+00  7.59869910E+00 -1.51973982E+01  7.59869910E+00
  7.59869910E+00 -1.51973982E+01  7.59869910E+00  7.59869910E+00 -1.51973982E+01
  7.59869910E+00  7.59869910E+00 -1.51973982E+01  7.59869910E+00  7.59869910E+00
 -1.51973982E+01  7.59869910E+00  7.59869910E+00 -1.51973982E+01  7.59869910E+00
  7.59869910E+00 -1.51973982E+01  7.59869910E+00  7.59869910E+00 -1.51973982E+01
  7.59869910E+00  7.59869910E+00 -1.51973982E+01  7.59869910E+00  7.59869910E+00
 -1.51973982E+01  7.59869910E+00  7.59869910E+00 -1.51973982E+01  7.59869910E+00
  7.59869910E+00 -1.51973982E+01  7.59869910E+00  7.59869910E+00 -1.51973982E+01
  7.59869910E+00  7.59869910E+00 -1.51973982E+01  7.59869910E+00  7.59869910E+00
 -1.51973982E+01  7.59869910E+00  7.59869910E+00 -1.51973982E+01  7.59869910E+00
  7.59869910E+00 -1.51973982E+01  7.59869910E+00  7.59869910E+00 -1.51973982E+01
  7.59869910E+00  7.59869910E+00 -1.51973982E+01  7.59869910E+00  7.59869910E+00
 -1.51973982E+01  7.59869910E+00  7.59869910E+00 -1.51973982E+01  7.59869910E+00
  7.59869910E+00 -1.51973982E+01  7.59869910E+00  7.59869910E+00 -1.51973982E+01
  7.59869910E+00  7.59869910E+00 -1.51973982E+01  7.59869910E+00  7.59869910E+00
 -1.51973982E+01  7.59869910E+00  7.59869910E+00 -1.51973982E+01  7.59869910E+00
  7.59869910E+00 -1.51973982E+01  7.59869910E+00  7.59869910E+00 -1.51973982E+01
  7.59869910E+00  7.59869910E+00 -1.51973982E+01  7.59869910E+00  7.59869910E+00
 -1.51973982E+01  7.59869910E+00  7.59869910E+00 -1.51973982E+01  7.59869910E+00
  7.59869910E+00 -1.51973982E+01  7.59869910E+00  7.59869910E+00 -1.51973982E+01
  7.59869910E+00  7.59869910E+00 -1.51973982E+01  7.59869910E+00  7.59869910E+00
 -1.51973982E+01  7.59869910E+00  7.59869910E+00 -1.51973982E+01  7.59869910E+00
  7.59869910E+00 -1.51973982E+01  7.59869910E+00  7.59869910E+00 -1.51973982E+01
  7.59869910E+00  7.59869910E+00 -1.51973982E+01  7.59869910E+00  7.59869910E+00
 -1.51973982E+01  7.59869910E+00  7.59869910E+00 -1.51973982E+01  7.59869910E+00
  7.59869910E+00 -1.51973982E+01  7.59869910E+00  7.59869910E+00 -1.51973982E+01
  7.59869910E+00  7.59869910E+00 -1.51973982E+01  7.59869910E+00  7.59869910E+00
 -1.51973982E+01  7.59869910E+00  7.59869910E+00 -1.51973982E+01  7.59869910E+00
  7.59869910E+00 -1.51973982E+01  7.59869910E+00  7.59869910E+00 -1.51973982E+01
  7.59869910E+00  7.59869910E+00 -1.51973982E+01  7.59869910E+00  7.59869910E+00
 -1.51973982E+01  7.59869910E+00  7.59869910E+00 -1.51973982E+01  7.59869910E+00
  7.59869910E+00 -1.51973982E+01  7.59869910E+00  7.59869910E+00 -1.51973982E+01
  7.59869910E+00  7.59869910E+00 -1.51973982E+01  7.59869910E+00  7.59869910E+00
 -1.51973982E+01  7.59869910E+00  7.59869910E+00 -1.51973982E+01  7.59869910E+00
  7.59869910E+00 -1.51973982E+01  7.59869910E+00  7.59869910E+00 -1.51973982E+01
  7.59869910E+00  7.59869910E+00 -1.51973982E+01  7.59869910E+00  7.59869910E+00
 -1.51973982E+01  7.59869910E+00  7.59869910E+00 -1.51973982E+01  7.59869910E+00
  7.59869910E+00 -1.51973982E+01  7.59869910E+00  7.59869910E+00 -1.51973982E+01
  7.59869910E+00  7.59869910E+00 -1.51973982E+01  7.59869910E+00  7.59869910E+00
 -1.51973982E+01  7.59869910E+00  7.59869910E+00 -1.51973982E+01  7.59869910E+00
  7.59869910E+00 -1.51973982E+01  7.59869910E+00  7.59869910E+00 -1.51973982E+01
  7.59869910E+00  7.59869910E+00 -1.51973982E+01  7.59869910E+00  7.59869910E+00
 -1.51973982E+01  7.59869910E+00  7.59869910E+00 -1.51973982E+01  7.59869910E+00
  7.59869910E+00 -1.51973982E+01  7.59869910E+00  7.59869910E+00 -1.51973982E+01
  7.59869910E+00  7.59869910E+00 -1.51973982E+01  7.59869910E+00  7.59869910E+00
 -1.51973982E+01  7.59869910E+00  7.59869910E+00 -1.51973982E+01  7.59869910E+00
  7.59869910E+00 -1.51973982E+01  7.59869910E+00  7.59869910E+00 -1.51973982E+01
  7.59869910E+00  7.59869910E+00 -1.51973982E+01  7.59869910E+00  7.59869910E+00
 -1.51973982E+01  7.59869910E+00  7.59869910E+00 -1.51973982E+01  7.59869910E+00
  7.59869910E+00 -1.51973982E+01  7.59869910E+00  7.59869910E+00 -1.51973982E+01
  7.59869910E+00  7.59869910E+00 -1.51973982E+01  7.59869910E+00  7.59869910E+00
 -1.51973982E+01  7.59869910E+00  7.59869910E+00 -1.51973982E+01  7.59869910E+00
  7.59869910E+00 -1.51973982E+01  7.59869910E+00  7.59869910E+00 -1.51973982E+01
  7.59869910E+00  7.59869910E+00 -1.51973982E+01  7.59869910E+00  7.59869910E+00
 -1.51973982E+01  7.59869910E+00  7.59869910E+00 -1.51973982E+01  7.59869910E+00
  7.59869910E+00 -1.51973982E+01  7.59869910E+00  7.59869910E+00 -1.51973982E+01
  7.59869910E+00  7.59869910E+00 -1.51973982E+01  7.59869910E+00  7.59869910E+00
 -1.51973982E+01  7.59869910E+00  7.59869910E+00 -1.51973982E+01  7.59869910E+00
  7.59869910E+00 -1.51973982E+01  7.59869910E+00  7.59869910E+00 -1.51973982E+01
  7.59869910E+00  7.59869910E+00 -1.51973982E+01  7.59869910E+00  7.59869910E+00
 -1.51973982E+01  7.59869910E+00  7.59869910E+00 -1.51973982E+01  7.59869910E+00
  7.59869910E+00 -1.51973982E+01  7.59869910E+00  7.59869910E+00 -1.51973982E+01
  7.59869910E+00  7.59869910E+00 -1.51973982E+01  7.59869910E+00  7.59869910E+00
 -1.51973982E+01  7.59869910E+00  7.59869910E+00 -1.51973982E+01  7.59869910E+00
  7.59869910E+00 -1.51973982E+01  7.59869910E+00  7.59869910E+00 -1.51973982E+01
  7.59869910E+00  7.59869910E+00 -1.51973982E+01  7.59869910E+00  7.59869910E+00
 -1.51973982E+01  7.59869910E+00  7.59869910E+00 -1.51973982E+01  7.59869910E+00
  7.59869910E+00 -1.51973982E+01  7.59869910E+00  7.59869910E+00 -1.51973982E+01
  7.59869910E+00  7.59869910E+00 -1.51973982E+01  7.59869910E+00  7.59869910E+00
 -1.51973982E+01  7.59869910E+00  7.59869910E+00 -1.51973982E+01  7.59869910E+00
  7.59869910E+00 -1.51973982E+01  7.59869910E+00  7.59869910E+00 -1.51973982E+01
  7.59869910E+00  7.59869910E+00 -1.51973982E+01  7.59869910E+00  7.59869910E+00
 -1.51973982E+01  7.59869910E+00  7.59869910E+00 -1.51973982E+01  7.59869910E+00
  7.59869910E+00 -1.51973982E+01  7.59869910E+00  7.59869910E+00 -1.51973982E+01
  7.59869910E+00  7.59869910E+00 -1.51973982E+01  7.59869910E+00  7.59869910E+00
 -1.51973982E+01  7.59869910E+00  7.59869910E+00 -1.51973982E+01  7.59869910E+00
  7.59869910E+00 -1.51973982E+01  7.59869910E+00  7.59869910E+00 -1.51973982E+01
  7.59869910E+00  7.59869910E+00 -1.51973982E+01  7.59869910E+00  7.59869910E+00
 -1.51973982E+01  7.59869910E+00  7.59869910E+00 -1.51973982E+01  7.59869910E+00
  7.59869910E+00 -1.51973982E+01  7.59869910E+00  7.59869910E+00 -1.51973982E+01
  7.59869910E+00  7.59869910E+00 -1.51973982E+01  7.59869910E+00  7.59869910E+00
 -1.51973982E+01  7.59869910E+00  7.59869910E+00 -1.51973982E+01  7.59869910E+00
  7.59869910E+00 -1.51973982E+01  7.59869910E+00  7.59869910E+00 -1.51973982E+01
  7.59869910E+00  7.59869910E+00 -1.51973982E+01  7.59869910E+00  7.59869910E+00
 -1.51973982E+01  7.59869910E+00  7.59869910E+00 -1.51973982E+01  7.59869910E+00
  7.59869910E+00 -1.51973982E+01  7.59869910E+00  7.59869910E+00 -1.51973982E+01
  7.59869910E+00  7.59869910E+00 -1.51973982E+01  7.59869910E+00  7.59869910E+00
 -1.51973982E+01  7.59869910E+00  7.59869910E+00 -1.51973982E+01  7.59869910E+00
  7.59869910E+00 -1.51973982E+01  7.59869910E+00  7.59869910E+00 -1.51973982E+01
  7.59869910E+00  7.59869910E+00 -1.51973982E+01  7.59869910E+00  7.59869910E+00
 -1.51973982E+01  7.59869910E+00  7.59869910E+00 -1.51973982E+01  7.59869910E+00
  7.59869910E+00 -1.51973982E+01  7.59869910E+00  7.59869910E+00 -1.51973982E+01
  7.59869910E+00  7.59869910E+00 -1.51973982E+01  7.59869910E+00  7.59869910E+00
 -1.51973982E+01  7.59869910E+00  7.59869910E+00 -1.51973982E+01  7.59869910E+00
  7.59869910E+00 -1.51973982E+01  7.59869910E+00  7.59869910E+00 -1.51973982E+01
  7.59869910E+00  7.59869910E+00 -1.51973982E+01  7.59869910E+00  7.59869910E+00
 -1.51973982E+01  7.59869910E+00  7.59869910E+00 -1.51973982E+01  7.59869910E+00
  7.59869910E+00 -1.51973982E+01  7.59869910E+00  7.59869910E+00 -1.51973982E+01
  7.59869910E+00  7.59869910E+00 -1.51973982E+01  7.59869910E+00  7.59869910E+00
 -1.51973982E+01  7.59869910E+00  7.59869910E+00 -1.51973982E+01  7.59869910E+00
  7.59869910E+00 -1.51973982E+01  7.59869910E+00  7.59869910E+00 -1.51973982E+01
  7.59869910E+00  7.59869910E+00 -1.51973982E+01  7.59869910E+00  7.59869910E+00
 -1.51973982E+01  7.59869910E+00  7.59869910E+00 -1.51973982E+01  7.59869910E+00
  7.59869910E+00 -1.51973982E+01  7.59869910E+00  7.59869910E+00 -1.51973982E+01
  7.59869910E+00  7.59869910E+00 -1.51973982E+01  7.59869910E+00  7.59869910E+00
 -1.51973982E+01  7.59869910E+00  7.59869910E+00 -1.51973982E+01  7.59869910E+00
  7.59869910E+00 -1.51973982E+01  7.59869910E+00  7.59869910E+00 -1.51973982E+01
  7.59869910E+00  7.59869910E+00 -1.51973982E+01  7.59869910E+00  7.59869910E+00
 -1.51973982E+01  7.59869910E+00  7.59869910E+00 -1.51973982E+01  7.59869910E+00
  7.59869910E+00 -1.51973982E+01  7.59869910E+00  7.59869910E+00 -1.51973982E+01
  7.59869910E+00  7.59869910E+00 -1.51973982E+01  7.59869910E+00  7.59869910E+00
 -1.51973982E+01  7.59869910E+00  7.59869910E+00 -1.51973982E+01  7.59869910E+00
  7.59869910E+00 -1.51973982E+01  7.59869910E+00  7.59869910E+00 -1.51973982E+01
  7.59869910E+00  7.59869910E+00 -1.51973982E+01  7.59869910E+00  7.59869910E+00
 -1.51973982E+01  7.59869910E+00  7.59869910E+00 -1.51973982E+01  7.59869910E+00
  7.59869910E+00 -1.51973982E+01  7.59869910E+00  7.59869910E+00 -1.51973982E+01
  7.59869910E+00  7.59869910E+00 -1.51973982E+01  7.59869910E+00  7.59869910E+00
 -1.51973982E+01  7.59869910E+00  7.59869910E+00 -1.51973982E+01  7.59869910E+00
  7.59869910E+00 -1.51973982E+01  7.59869910E+00  7.59869910E+00 -1.51973982E+01
  7.59869910E+00  7.59869910E+00 -1.51973982E+01  7.59869910E+00  7.59869910E+00
 -1.51973982E+01  7.59869910E+00  7.59869910E+00 -1.51973982E+01  7.59869910E+00
  7.59869910E+00 -1.51973982E+01  7.59869910E+00  7.59869910E+00 -1.51973982E+01
  7.59869910E+00  7.59869910E+00 -1.51973982E+01  7.59869910E+00  7.59869910E+00
 -1.51973982E+01  7.59869910E+00  7.59869910E+00 -1.51973982E+01  7.59869910E+00
  7.59869910E+00 -1.51973982E+01  7.59869910E+00  7.59869910E+00 -1.51973982E+01
  7.59869910E+00  7.59869910E+00 -1.51973982E+01  7.59869910E+00  7.59869910E+00
 -1.51973982E+01  7.59869910E+00  7.59869910E+00 -1.51973982E+01  7.59869910E+00
  7.59869910E+00 -1.51973982E+01  7.59869910E+00  7.59869910E+00 -1.51973982E+01
  7.59869910E+00  7.59869910E+00 -1.51973982E+01  7.59869910E+00  7.59869910E+00
 -1.51973982E+01  7.59869910E+00  7.59869910E+00 -1.51973982E+01  7.59869910E+00
  7.59869910E+00 -1.51973982E+01  7.59869910E+00  7.59869910E+00 -1.51973982E+01
  7.59869910E+00  7.59869910E+00 -1.51973982E+01  7.59869910E+00  7.59869910E+00
 -1.51973982E+01  7.59869910E+00  7.59869910E+00 -1.51973982E+01  7.59869910E+00
  7.59869910E+00 -1.51973982E+01  7.59869910E+00  7.59869910E+00 -1.51973982E+01
  7.59869910E+00  7.59869910E+00 -1.51973982E+01  7.59869910E+00  7.59869910E+00
 -1.51973982E+01  7.59869910E+00  7.59869910E+00 -1.51973982E+01  7.59869910E+00
  7.59869910E+00 -1.51973982E+01  7.59869910E+00  7.59869910E+00 -1.51973982E+01
  7.59869910E+00  7.59869910E+00 -1.51973982E+01  7.59869910E+00  7.59869910E+00
 -1.51973982E+01  7.59869910E+00  7.59869910E+00 -1.51973982E+01  7.59869910E+00
  7.59869910E+00 -1.51973982E+01  7.59869910E+00  7.59869910E+00 -1.51973982E+01
  7.59869910E+00  7.59869910E+00 -1.51973982E+01  7.59869910E+00  7.59869910E+00
 -1.51973982E+01  7.59869910E+00  7.59869910E+00 -1.51973982E+01  7.59869910E+00
  7.59869910E+00 -1.51973982E+01  7.59869910E+00  7.59869910E+00 -1.51973982E+01
  7.59869910E+00  7.59869910E+00 -1.51973982E+01  7.59869910E+00  7.59869910E+00
 -1.51973982E+01  7.59869910E+00  7.59869910E+00 -1.51973982E+01  7.59869910E+00
  7.59869910E+00 -1.51973982E+01  7.59869910E+00  7.59869910E+00 -1.51973982E+01
  7.59869910E+00  7.59869910E+00 -1.51973982E+01  7.59869910E+00  7.59869910E+00
 -1.51973982E+01  7.59869910E+00  7.59869910E+00 -1.51973982E+01  7.59869910E+00
  7.59869910E+00 -1.51973982E+01  7.59869910E+00  7.59869910E+00 -1.51973982E+01
  7.59869910E+00  7.59869910E+00 -1.51973982E+01  7.59869910E+00  7.59869910E+00
 -1.51973982E+01  7.59869910E+00  7.59869910E+00 -1.51973982E+01  7.59869910E+00
  7.59869910E+00 -1.51973982E+01  7.59869910E+00  7.59869910E+00 -1.51973982E+01
  7.59869910E+00  7.59869910E+00 -1.51973982E+01  7.59869910E+00  7.59869910E+00
 -1.51973982E+01  7.59869910E+00  7.59869910E+00 -1.51973982E+01  7.59869910E+00
  7.59869910E+00 -1.51973982E+01  7.59869910E+00  7.59869910E+00 -1.51973982E+01
  7.59869910E+00  7.59869910E+00 -1.51973982E+01  7.59869910E+00  7.59869910E+00
 -1.51973982E+01  7.59869910E+00  7.59869910E+00 -1.51973982E+01  7.59869910E+00
  7.59869910E+00 -1.51973982E+01  7.59869910E+00  7.59869910E+00 -1.51973982E+01
  7.59869910E+00  7.59869910E+00 -1.51973982E+01  7.59869910E+00  7.59869910E+00
 -1.51973982E+01  7.59869910E+00  7.59869910E+00 -1.51973982E+01  7.59869910E+00
  7.59869910E+00 -1.51973982E+01  7.59869910E+00  7.59869910E+00 -1.51973982E+01
  7.59869910E+00  7.59869910E+00 -1.51973982E+01  7.59869910E+00  7.59869910E+00
 -1.51973982E+01  7.59869910E+00  7.59869910E+00 -1.51973982E+01  7.59869910E+00
  7.59869910E+00 -1.51973982E+01  7.59869910E+00  7.59869910E+00 -1.51973982E+01
  7.59869910E+00  7.59869910E+00 -1.51973982E+01  7.59869910E+00  7.59869910E+00
 -1.51973982E+01  7.59869910E+00  7.59869910E+00 -1.51973982E+01  7.59869910E+00
  7.59869910E+00 -1.51973982E+01  7.59869910E+00  7.59869910E+00 -1.51973982E+01
  7.59869910E+00  7.59869910E+00 -1.51973982E+01  7.59869910E+00  7.59869910E+00
 -1.51973982E+01  7.59869910E+00  7.59869910E+00 -1.51973982E+01  7.59869910E+00
  7.59869910E+00 -1.51973982E+01  7.59869910E+00  7.59869910E+00 -1.51973982E+01
  7.59869910E+00  7.59869910E+00 -1.51973982E+01  7.59869910E+00  7.59869910E+00
 -1.51973982E+01  7.59869910E+00  7.59869910E+00 -1.51973982E+01  7.59869910E+00
  7.59869910E+00 -1.51973982E+01  7.59869910E+00  7.59869910E+00 -1.51973982E+01
  7.59869910E+00  7.59869910E+00 -1.51973982E+01  7.59869910E+00  7.59869910E+00
 -1.51973982E+01  7.59869910E+00  7.59869910E+00 -1.51973982E+01  7.59869910E+00
  7.59869910E+00 -1.51973982E+01  7.59869910E+00  7.59869910E+00 -1.51973982E+01
  7.59869910E+00  7.59869910E+00 -1.51973982E+01  7.59869910E+00  7.59869910E+00
 -1.51973982E+01  7.59869910E+00  7.59869910E+00 -1.51973982E+01  7.59869910E+00
  7.59869910E+00 -1.51973982E+01  7.59869910E+00  7.59869910E+00 -1.51973982E+01
  7.59869910E+00  7.59869910E+00 -1.51973982E+01  7.59869910E+00  7.59869910E+00
 -1.51973982E+01  7.59869910E+00  7.59869910E+00 -1.51973982E+01  7.59869910E+00
  7.59869910E+00 -1.51973982E+01  7.59869910E+00  7.59869910E+00 -1.51973982E+01
  7.59869910E+00  7.59869910E+00 -1.51973982E+01  7.59869910E+00  7.59869910E+00
 -1.51973982E+01  7.59869910E+00  7.59869910E+00 -1.51973982E+01  7.59869910E+00
  7.59869910E+00 -1.51973982E+01  7.59869910E+00  7.59869910E+00 -1.51973982E+01
  7.59869910E+00  7.59869910E+00 -1.51973982E+01  7.59869910E+00  7.59869910E+00
 -1.51973982E+01  7.59869910E+00  7.59869910E+00 -1.51973982E+01  7.59869910E+00
  7.59869910E+00 -1.51973982E+01  7.59869910E+00  7.59869910E+00 -1.51973982E+01
  7.59869910E+00  7.59869910E+00 -1.51973982E+01  7.59869910E+00  7.59869910E+00
 -1.51973982E+01  7.59869910E+00  7.59869910E+00 -1.51973982E+01  7.59869910E+00
  7.59869910E+00 -1.51973982E+01  7.59869910E+00  7.59869910E+00 -1.51973982E+01
  7.59869910E+00  7.59869910E+00 -1.51973982E+01  7.59869910E+00  7.59869910E+00
 -1.51973982E+01  7.59869910E+00  7.59869910E+00 -1.51973982E+01  7.59869910E+00
  7.59869910E+00 -1.51973982E+01  7.59869910E+00  7.59869910E+00 -1.51973982E+01
  7.59869910E+00  7.59869910E+00 -1.51973982E+01  7.59869910E+00  7.59869910E+00
 -1.51973982E+01  7.59869910E+00  7.59869910E+00 -1.51973982E+01  7.59869910E+00
  7.59869910E+00 -1.51973982E+01  7.59869910E+00  7.59869910E+00 -1.51973982E+01
  7.59869910E+00  7.59869910E+00 -1.51973982E+01  7.59869910E+00  7.59869910E+00
 -1.51973982E+01  7.59869910E+00  7.59869910E+00 -1.51973982E+01  7.59869910E+00
  7.59869910E+00 -1.51973982E+01  7.59869910E+00  7.59869910E+00 -1.51973982E+01
  7.59869910E+00  7.59869910E+00 -1.51973982E+01  7.59869910E+00  7.59869910E+00
 -1.51973982E+01  7.59869910E+00  7.59869910E+00 -1.51973982E+01  7.59869910E+00
  7.59869910E+00 -1.51973982E+01  7.59869910E+00  7.59869910E+00 -1.51973982E+01
  7.59869910E+00  7.59869910E+00 -1.51973982E+01  7.59869910E+00  7.59869910E+00
 -1.51973982E+01  7.59869910E+00  7.59869910E+00 -1.51973982E+01  7.59869910E+00
  7.59869910E+00 -1.51973982E+01  7.59869910E+00  7.59869910E+00 -1.51973982E+01
  7.59869910E+00  7.59869910E+00 -1.51973982E+01  7.59869910E+00  7.59869910E+00
 -1.51973982E+01  7.59869910E+00  7.59869910E+00 -1.51973982E+01  7.59869910E+00
  7.59869910E+00 -1.51973982E+01  7.59869910E+00  7.59869910E+00 -1.51973982E+01
  7.59869910E+00  7.59869910E+00 -1.51973982E+01  7.59869910E+00  7.59869910E+00
 -1.51973982E+01  7.59869910E+00  7.59869910E+00 -1.51973982E+01  7.59869910E+00
  7.59869910E+00 -1.51973982E+01  7.59869910E+00  7.59869910E+00 -1.51973982E+01
  7.59869910E+00  7.59869910E+00 -1.51973982E+01  7.59869910E+00  7.59869910E+00
 -1.51973982E+01  7.59869910E+00  7.59869910E+00 -1.51973982E+01  7.59869910E+00
  7.59869910E+00 -1.51973982E+01  7.59869910E+00  7.59869910E+00 -1.51973982E+01
  7.59869910E+00  7.59869910E+00 -1.51973982E+01  7.59869910E+00  7.59869910E+00
 -1.51973982E+01  7.59869910E+00  7.59869910E+00 -1.51973982E+01  7.59869910E+00
  7.59869910E+00 -1.51973982E+01  7.59869910E+00  7.59869910E+00 -1.51973982E+01
  7.59869910E+00  7.59869910E+00 -1.51973982E+01  7.59869910E+00  7.59869910E+00
 -1.51973982E+01  7.59869910E+00  7.59869910E+00 -1.51973982E+01  7.59869910E+00
  7.59869910E+00 -1.51973982E+01  7.59869910E+00  7.59869910E+00 -1.51973982E+01
  7.59869910E+00  7.59869910E+00 -1.51973982E+01  7.59869910E+00  7.59869910E+00
 -1.51973982E+01  7.59869910E+00  7.59869910E+00 -1.51973982E+01  7.59869910E+00
  7.59869910E+00 -1.51973982E+01  7.59869910E+00  7.59869910E+00 -1.51973982E+01
  7.59869910E+00  7.59869910E+00 -1.51973982E+01  7.59869910E+00  7.59869910E+00
 -1.51973982E+01  7.59869910E+00  7.59869910E+00 -1.51973982E+01  7.59869910E+00
  7.59869910E+00 -1.51973982E+01  7.59869910E+00  7.59869910E+00 -1.51973982E+01
  7.59869910E+00  7.59869910E+00 -1.51973982E+01  7.59869910E+00  7.59869910E+00
 -1.51973982E+01  7.59869910E+00  7.59869910E+00 -1.51973982E+01  7.59869910E+00
  7.59869910E+00 -1.51973982E+01  7.59869910E+00  7.59869910E+00 -1.51973982E+01
  7.59869910E+00  7.59869910E+00 -1.51973982E+01  7.59869910E+00  7.59869910E+00
 -1.51973982E+01  7.59869910E+00  7.59869910E+00 -1.51973982E+01  7.59869910E+00
  7.59869910E+00 -1.51973982E+01  7.59869910E+00  7.59869910E+00 -1.51973982E+01
  7.59869910E+00  7.59869910E+00 -1.51973982E+01  7.59869910E+00  7.59869910E+00
 -1.51973982E+01  7.59869910E+00  7.59869910E+00 -1.51973982E+01  7.59869910E+00
  7.59869910E+00 -1.51973982E+01  7.59869910E+00  7.59869910E+00 -1.51973982E+01
  7.59869910E+00  7.59869910E+00 -1.51973982E+01  7.59869910E+00  7.59869910E+00
 -1.51973982E+01  7.59869910E+00  7.59869910E+00 -1.51973982E+01  7.59869910E+00
  7.59869910E+00 -1.51973982E+01  7.59869910E+00  7.59869910E+00 -1.51973982E+01
  7.59869910E+00  7.59869910E+00 -1.51973982E+01  7.59869910E+00  7.59869910E+00
 -1.51973982E+01  7.59869910E+00  7.59869910E+00 -1.51973982E+01  7.59869910E+00
  7.59869910E+00 -1.51973982E+01  7.59869910E+00  7.59869910E+00 -1.51973982E+01
  7.59869910E+00  7.59869910E+00 -1.51973982E+01  7.59869910E+00  7.59869910E+00
 -1.51973982E+01  7.59869910E+00  7.59869910E+00 -1.51973982E+01  7.59869910E+00
  7.59869910E+00 -1.51973982E+01  7.59869910E+00  7.59869910E+00 -1.51973982E+01
  7.59869910E+00  7.59869910E+00 -1.51973982E+01  7.59869910E+00  7.59869910E+00
 -1.51973982E+01  7.59869910E+00  7.59869910E+00 -1.51973982E+01  7.59869910E+00
  7.59869910E+00 -1.51973982E+01  7.59869910E+00  7.59869910E+00 -1.51973982E+01
  7.59869910E+00  7.59869910E+00 -1.51973982E+01  7.59869910E+00  7.59869910E+00
 -1.51973982E+01  7.59869910E+00  7.59869910E+00 -1.51973982E+01  7.59869910E+00
  7.59869910E+00 -1.51973982E+01  7.59869910E+00  7.59869910E+00 -1.51973982E+01
  7.59869910E+00  7.59869910E+00 -1.51973982E+01  7.59869910E+00  7.59869910E+00
 -1.51973982E+01  7.59869910E+00  7.59869910E+00 -1.51973982E+01  7.59869910E+00
  7.59869910E+00 -1.51973982E+01  7.59869910E+00  7.59869910E+00 -1.51973982E+01
  7.59869910E+00  7.59869910E+00 -1.51973982E+01  7.59869910E+00  7.59869910E+00
 -1.51973982E+01  7.59869910E+00  7.59869910E+00 -1.51973982E+01  7.59869910E+00
  7.59869910E+00 -1.51973982E+01  7.59869910E+00  7.59869910E+00 -1.51973982E+01
  7.59869910E+00  7.59869910E+00 -1.51973982E+01  7.59869910E+00  7.59869910E+00
 -1.51973982E+01  7.59869910E+00  7.59869910E+00 -1.51973982E+01  7.59869910E+00
  7.59869910E+00 -1.51973982E+01  7.59869910E+00  7.59869910E+00 -1.51973982E+01
  7.59869910E+00  7.59869910E+00 -1.51973982E+01  7.59869910E+00  7.59869910E+00
 -1.51973982E+01  7.59869910E+00  7.59869910E+00 -1.51973982E+01  7.59869910E+00
  7.59869910E+00 -1.51973982E+01  7.59869910E+00  7.59869910E+00 -1.51973982E+01
  7.59869910E+00  7.59869910E+00 -1.51973982E+01  7.59869910E+00  7.59869910E+00
 -1.51973982E+01  7.59869910E+00  7.59869910E+00 -1.51973982E+01  7.59869910E+00
  7.59869910E+00 -1.51973982E+01  7.59869910E+00  7.59869910E+00 -1.51973982E+01
  7.59869910E+00  7.59869910E+00 -1.51973982E+01  7.59869910E+00  7.59869910E+00
 -1.51973982E+01  7.59869910E+00  7.59869910E+00 -1.51973982E+01  7.59869910E+00
  7.59869910E+00 -1.51973982E+01  7.59869910E+00  7.59869910E+00 -1.51973982E+01
  7.59869910E+00  7.59869910E+00 -1.51973982E+01  7.59869910E+00  7.59869910E+00
 -1.51973982E+01  7.59869910E+00  7.59869910E+00 -1.51973982E+01  7.59869910E+00
  7.59869910E+00 -1.51973982E+01  7.59869910E+00  7.59869910E+00 -1.51973982E+01
  7.59869910E+00  7.59869910E+00 -1.51973982E+01  7.59869910E+00  7.59869910E+00
 -1.51973982E+01  7.59869910E+00  7.59869910E+00 -1.51973982E+01  7.59869910E+00
  7.59869910E+00 -1.51973982E+01  7.59869910E+00  7.59869910E+00 -1.51973982E+01
  7.59869910E+00  7.59869910E+00 -1.51973982E+01  7.59869910E+00  7.59869910E+00
 -1.51973982E+01  7.59869910E+00  7.59869910E+00 -1.51973982E+01  7.59869910E+00
  7.59869910E+00 -1.51973982E+01  7.59869910E+00  7.59869910E+00 -1.51973982E+01
  7.59869910E+00  7.59869910E+00 -1.51973982E+01  7.59869910E+00  7.59869910E+00
 -1.51973982E+01  7.59869910E+00  7.59869910E+00 -1.51973982E+01  7.59869910E+00
  7.59869910E+00 -1.51973982E+01  7.59869910E+00  7.59869910E+00 -1.51973982E+01
  7.59869910E+00  7.59869910E+00 -1.51973982E+01  7.59869910E+00  7.59869910E+00
 -1.51973982E+01  7.59869910E+00  7.59869910E+00 -1.51973982E+01  7.59869910E+00
  7.59869910E+00 -1.51973982E+01  7.59869910E+00  7.59869910E+00 -1.51973982E+01
  7.59869910E+00  7.59869910E+00 -1.51973982E+01  7.59869910E+00  7.59869910E+00
 -1.51973982E+01  7.59869910E+00  7.59869910E+00 -1.51973982E+01  7.59869910E+00
  7.59869910E+00 -1.51973982E+01  7.59869910E+00  7.59869910E+00 -1.51973982E+01
  7.59869910E+00  7.59869910E+00 -1.51973982E+01  7.59869910E+00  7.59869910E+00
 -1.51973982E+01  7.59869910E+00  7.59869910E+00 -1.51973982E+01  7.59869910E+00
  7.59869910E+00 -1.51973982E+01  7.59869910E+00  7.59869910E+00 -1.51973982E+01
  7.59869910E+00  7.59869910E+00 -1.51973982E+01  7.59869910E+00  7.59869910E+00
 -1.51973982E+01  7.59869910E+00  7.59869910E+00 -1.51973982E+01  7.59869910E+00
  7.59869910E+00 -1.51973982E+01  7.59869910E+00  7.59869910E+00 -1.51973982E+01
  7.59869910E+00  7.59869910E+00 -1.51973982E+01  7.59869910E+00  7.59869910E+00
 -1.51973982E+01  7.59869910E+00  7.59869910E+00 -1.51973982E+01  7.59869910E+00
  7.59869910E+00 -1.51973982E+01  7.59869910E+00  7.59869910E+00 -1.51973982E+01
  7.59869910E+00  7.59869910E+00 -1.51973982E+01  7.59869910E+00  7.59869910E+00
 -1.51973982E+01  7.59869910E+00  7.59869910E+00 -1.51973982E+01  7.59869910E+00
  7.59869910E+00 -1.51973982E+01  7.59869910E+00  7.59869910E+00 -1.51973982E+01
  7.59869910E+00  7.59869910E+00 -1.51973982E+01  7.59869910E+00  7.59869910E+00
 -1.51973982E+01  7.59869910E+00  7.59869910E+00 -1.51973982E+01  7.59869910E+00
  7.59869910E+00 -1.51973982E+01  7.59869910E+00  7.59869910E+00 -1.51973982E+01
  7.59869910E+00  7.59869910E+00 -1.51973982E+01  7.59869910E+00  7.59869910E+00
 -1.51973982E+01  7.59869910E+00  7.59869910E+00 -1.51973982E+01  7.59869910E+00
  7.59869910E+00 -1.51973982E+01  7.59869910E+00  7.59869910E+00 -1.51973982E+01
  7.59869910E+00  7.59869910E+00 -1.51973982E+01  7.59869910E+00  7.59869910E+00
 -1.51973982E+01  7.59869910E+00  7.59869910E+00 -1.51973982E+01  7.59869910E+00
  7.59869910E+00 -1.51973982E+01  7.59869910E+00  7.59869910E+00 -1.51973982E+01
  7.59869910E+00  7.59869910E+00 -1.51973982E+01  7.59869910E+00  7.59869910E+00
 -1.51973982E+01  7.59869910E+00  7.59869910E+00 -1.51973982E+01  7.59869910E+00
  7.59869910E+00 -1.51973982E+01  7.59869910E+00  7.59869910E+00 -1.51973982E+01
  7.59869910E+00  7.59869910E+00 -1.51973982E+01  7.59869910E+00  7.59869910E+00
 -1.51973982E+01  7.59869910E+00  7.59869910E+00 -1.51973982E+01  7.59869910E+00
  7.59869910E+00 -1.51973982E+01  7.59869910E+00  7.59869910E+00 -1.51973982E+01
  7.59869910E+00  7.59869910E+00 -1.51973982E+01  7.59869910E+00  7.59869910E+00
 -1.51973982E+01  7.59869910E+00  7.59869910E+00 -1.51973982E+01  7.59869910E+00
  7.59869910E+00 -1.51973982E+01  7.59869910E+00  7.59869910E+00 -1.51973982E+01
  7.59869910E+00  7.59869910E+00 -1.51973982E+01  7.59869910E+00  7.59869910E+00
 -1.51973982E+01  7.59869910E+00  7.59869910E+00 -1.51973982E+01  7.59869910E+00
  7.59869910E+00 -1.51973982E+01  7.59869910E+00  7.59869910E+00 -1.51973982E+01
  7.59869910E+00  7.59869910E+00 -1.51973982E+01  7.59869910E+00  7.59869910E+00
 -1.51973982E+01  7.59869910E+00  7.59869910E+00 -1.51973982E+01  7.59869910E+00
  7.59869910E+00 -1.51973982E+01  7.59869910E+00  7.59869910E+00 -1.51973982E+01
  7.59869910E+00  7.59869910E+00 -1.51973982E+01  7.59869910E+00  7.59869910E+00
 -1.51973982E+01  7.59869910E+00  7.59869910E+00 -1.51973982E+01  7.59869910E+00
  7.59869910E+00 -1.51973982E+01  7.59869910E+00  7.59869910E+00 -1.51973982E+01
  7.59869910E+00  7.59869910E+00 -1.51973982E+01  7.59869910E+00  7.59869910E+00
 -1.51973982E+01  7.59869910E+00  7.59869910E+00 -1.51973982E+01  7.59869910E+00
  7.59869910E+00 -1.51973982E+01  7.59869910E+00  7.59869910E+00 -1.51973982E+01
  7.59869910E+00  7.59869910E+00 -1.51973982E+01  7.59869910E+00  7.59869910E+00
 -1.51973982E+01  7.59869910E+00  7.59869910E+00 -1.51973982E+01  7.59869910E+00
  7.59869910E+00 -1.51973982E+01  7.59869910E+00  7.59869910E+00 -1.51973982E+01
  7.59869910E+00  7.59869910E+00 -1.51973982E+01  7.59869910E+00  7.59869910E+00
 -1.51973982E+01  7.59869910E+00  7.59869910E+00 -1.51973982E+01  7.59869910E+00
  7.59869910E+00 -1.51973982E+01  7.59869910E+00  7.59869910E+00 -1.51973982E+01
  7.59869910E+00  7.59869910E+00 -1.51973982E+01  7.59869910E+00  7.59869910E+00
 -1.51973982E+01  7.59869910E+00  7.59869910E+00 -1.51973982E+01  7.59869910E+00
  7.59869910E+00 -1.51973982E+01  7.59869910E+00  7.59869910E+00 -1.51973982E+01
  7.59869910E+00  7.59869910E+00 -1.51973982E+01  7.59869910E+00  7.59869910E+00
 -1.51973982E+01  7.59869910E+00  7.59869910E+00 -1.51973982E+01  7.59869910E+00
  7.59869910E+00 -1.51973982E+01  7.59869910E+00  7.59869910E+00 -1.51973982E+01
  7.59869910E+00  7.59869910E+00 -1.51973982E+01  7.59869910E+00  7.59869910E+00
 -1.51973982E+01  7.59869910E+00  7.59869910E+00 -1.51973982E+01  7.59869910E+00
  7.59869910E+00 -1.51973982E+01  7.59869910E+00  7.59869910E+00 -1.51973982E+01
  7.59869910E+00  7.59869910E+00 -1.51973982E+01  7.59869910E+00  7.59869910E+00
 -1.51973982E+01  7.59869910E+00  7.59869910E+00 -1.51973982E+01  7.59869910E+00
  7.59869910E+00 -1.51973982E+01  7.59869910E+00  7.59869910E+00 -1.51973982E+01
  7.59869910E+00  7.59869910E+00 -1.51973982E+01  7.59869910E+00  7.59869910E+00
 -1.51973982E+01  7.59869910E+00  7.59869910E+00 -1.51973982E+01  7.59869910E+00
  7.59869910E+00 -1.51973982E+01  7.59869910E+00  7.59869910E+00 -1.51973982E+01
  7.59869910E+00  7.59869910E+00 -1.51973982E+01  7.59869910E+00  7.59869910E+00
 -1.51973982E+01  7.59869910E+00  7.59869910E+00 -1.51973982E+01  7.59869910E+00
  7.59869910E+00 -1.51973982E+01  7.59869910E+00  7.59869910E+00 -1.51973982E+01
  7.59869910E+00  7.59869910E+00 -1.51973982E+01  7.59869910E+00  7.59869910E+00
 -1.51973982E+01  7.59869910E+00  7.59869910E+00 -1.51973982E+01  7.59869910E+00
  7.59869910E+00 -1.51973982E+01  7.59869910E+00  7.59869910E+00 -1.51973982E+01
  7.59869910E+00  7.59869910E+00 -1.51973982E+01  7.59869910E+00  7.59869910E+00
 -1.51973982E+01  7.59869910E+00  7.59869910E+00 -1.51973982E+01  7.59869910E+00
  7.59869910E+00 -1.51973982E+01  7.59869910E+00  7.59869910E+00 -1.51973982E+01
  7.59869910E+00  7.59869910E+00 -1.51973982E+01  7.59869910E+00  7.59869910E+00
 -1.51973982E+01  7.59869910E+00  7.59869910E+00 -1.51973982E+01  7.59869910E+00
  7.59869910E+00 -1.51973982E+01  7.59869910E+00  7.59869910E+00 -1.51973982E+01
  7.59869910E+00  7.59869910E+00 -1.51973982E+01  7.59869910E+00  7.59869910E+00
 -1.51973982E+01  7.59869910E+00  7.59869910E+00 -1.51973982E+01  7.59869910E+00
  7.59869910E+00 -1.51973982E+01  7.59869910E+00  7.59869910E+00 -1.51973982E+01
  7.59869910E+00  7.59869910E+00 -1.51973982E+01  7.59869910E+00  7.59869910E+00
 -1.51973982E+01  7.59869910E+00  7.59869910E+00 -1.51973982E+01  7.59869910E+00
  7.59869910E+00 -1.51973982E+01  7.59869910E+00  7.59869910E+00 -1.51973982E+01
  7.59869910E+00  7.59869910E+00 -1.51973982E+01  7.59869910E+00  7.59869910E+00
 -1.51973982E+01  7.59869910E+00  7.59869910E+00 -1.51973982E+01  7.59869910E+00
  7.59869910E+00 -1.51973982E+01  7.59869910E+00  7.59869910E+00 -1.51973982E+01
  7.59869910E+00  7.59869910E+00 -1.51973982E+01  7.59869910E+00  7.59869910E+00
 -1.51973982E+01  7.59869910E+00  7.59869910E+00 -1.51973982E+01  7.59869910E+00
  7.59869910E+00 -1.51973982E+01  7.59869910E+00  7.59869910E+00 -1.51973982E+01
  7.59869910E+00  7.59869910E+00 -1.51973982E+01  7.59869910E+00  7.59869910E+00
 -1.51973982E+01  7.59869910E+00  7.59869910E+00 -1.51973982E+01  7.59869910E+00
  7.59869910E+00 -1.51973982E+01  7.59869910E+00  7.59869910E+00 -1.51973982E+01
  7.59869910E+00  7.59869910E+00 -1.51973982E+01  7.59869910E+00  7.59869910E+00
 -1.51973982E+01  7.59869910E+00  7.59869910E+00 -1.51973982E+01  7.59869910E+00
  7.59869910E+00 -1.51973982E+01  7.59869910E+00  7.59869910E+00 -1.51973982E+01
  7.59869910E+00  7.59869910E+00 -1.51973982E+01  7.59869910E+00  7.59869910E+00
 -1.51973982E+01  7.59869910E+00  7.59869910E+00 -1.51973982E+01  7.59869910E+00
  7.59869910E+00 -1.51973982E+01  7.59869910E+00  7.59869910E+00 -1.51973982E+01
  7.59869910E+00  7.59869910E+00 -1.51973982E+01  7.59869910E+00  7.59869910E+00
 -1.51973982E+01  7.59869910E+00  7.59869910E+00 -1.51973982E+01  7.59869910E+00
  7.59869910E+00 -1.51973982E+01  7.59869910E+00  7.59869910E+00 -1.51973982E+01
  7.59869910E+00  7.59869910E+00 -1.51973982E+01  7.59869910E+00  7.59869910E+00
 -1.51973982E+01  7.59869910E+00  7.59869910E+00 -1.51973982E+01  7.59869910E+00
  7.59869910E+00 -1.51973982E+01  7.59869910E+00  7.59869910E+00 -1.51973982E+01
  7.59869910E+00  7.59869910E+00 -1.51973982E+01  7.59869910E+00  7.59869910E+00
 -1.51973982E+01  7.59869910E+00  7.59869910E+00 -1.51973982E+01  7.59869910E+00
  7.59869910E+00 -1.51973982E+01  7.59869910E+00  7.59869910E+00 -1.51973982E+01
  7.59869910E+00  7.59869910E+00 -1.51973982E+01  7.59869910E+00  7.59869910E+00
 -1.51973982E+01  7.59869910E+00  7.59869910E+00 -1.51973982E+01  7.59869910E+00
  7.59869910E+00 -1.51973982E+01  7.59869910E+00  7.59869910E+00 -1.51973982E+01
  7.59869910E+00  7.59869910E+00 -1.51973982E+01  7.59869910E+00  7.59869910E+00
 -1.51973982E+01  7.59869910E+00  7.59869910E+00 -1.51973982E+01  7.59869910E+00
  7.59869910E+00 -1.51973982E+01  7.59869910E+00  7.59869910E+00 -1.51973982E+01
  7.59869910E+00  7.59869910E+00 -1.51973982E+01  7.59869910E+00  7.59869910E+00
 -1.51973982E+01  7.59869910E+00  7.59869910E+00 -1.51973982E+01  7.59869910E+00
  7.59869910E+00 -1.51973982E+01  7.59869910E+00  7.59869910E+00 -1.51973982E+01
  7.59869910E+00  7.59869910E+00 -1.51973982E+01  7.59869910E+00  7.59869910E+00
 -1.51973982E+01  7.59869910E+00  7.59869910E+00 -1.51973982E+01  7.59869910E+00
  7.59869910E+00 -1.51973982E+01  7.59869910E+00  7.59869910E+00 -1.51973982E+01
  7.59869910E+00  7.59869910E+00 -1.51973982E+01  7.59869910E+00  7.59869910E+00
 -1.51973982E+01  7.59869910E+00  7.59869910E+00 -1.51973982E+01  7.59869910E+00
  7.59869910E+00 -1.51973982E+01  7.59869910E+00  7.59869910E+00 -1.51973982E+01
  7.59869910E+00  7.59869910E+00 -1.51973982E+01  7.59869910E+00  7.59869910E+00
 -1.51973982E+01  7.59869910E+00  7.59869910E+00 -1.51973982E+01  7.59869910E+00
  7.59869910E+00 -1.51973982E+01  7.59869910E+00  7.59869910E+00 -1.51973982E+01
  7.59869910E+00  7.59869910E+00 -1.51973982E+01  7.59869910E+00  7.59869910E+00
 -1.51973982E+01  7.59869910E+00  7.59869910E+00 -1.51973982E+01  7.59869910E+00
  7.59869910E+00 -1.51973982E+01  7.59869910E+00  7.59869910E+00 -1.51973982E+01
  7.59869910E+00  7.59869910E+00 -1.51973982E+01  7.59869910E+00  7.59869910E+00
 -1.51973982E+01  7.59869910E+00  7.59869910E+00 -1.51973982E+01  7.59869910E+00
  7.59869910E+00 -1.51973982E+01  7.59869910E+00  7.59869910E+00 -1.51973982E+01
  7.59869910E+00  7.59869910E+00 -1.51973982E+01  7.59869910E+00  7.59869910E+00
 -1.51973982E+01  7.59869910E+00  7.59869910E+00 -1.51973982E+01  7.59869910E+00
  7.59869910E+00 -1.51973982E+01  7.59869910E+00  7.59869910E+00 -1.51973982E+01
  7.59869910E+00  7.59869910E+00 -1.51973982E+01  7.59869910E+00  7.59869910E+00
 -1.51973982E+01  7.59869910E+00  7.59869910E+00 -1.51973982E+01  7.59869910E+00
  7.59869910E+00 -1.51973982E+01  7.59869910E+00  7.59869910E+00 -1.51973982E+01
  7.59869910E+00  7.59869910E+00 -1.51973982E+01  7.59869910E+00  7.59869910E+00
 -1.51973982E+01  7.59869910E+00  7.59869910E+00 -1.51973982E+01  7.59869910E+00
  7.59869910E+00 -1.51973982E+01  7.59869910E+00  7.59869910E+00 -1.51973982E+01
  7.59869910E+00  7.59869910E+00 -1.51973982E+01  7.59869910E+00  7.59869910E+00
 -1.51973982E+01  7.59869910E+00  7.59869910E+00 -1.51973982E+01  7.59869910E+00
  7.59869910E+00 -1.51973982E+01  7.59869910E+00  7.59869910E+00 -1.51973982E+01
  7.59869910E+00  7.59869910E+00 -1.51973982E+01  7.59869910E+00  7.59869910E+00
 -1.51973982E+01  7.59869910E+00  7.59869910E+00 -1.51973982E+01  7.59869910E+00
  7.59869910E+00 -1.51973982E+01  7.59869910E+00  7.59869910E+00 -1.51973982E+01
  7.59869910E+00  7.59869910E+00 -1.51973982E+01  7.59869910E+00  7.59869910E+00
 -1.51973982E+01  7.59869910E+00  7.59869910E+00 -1.51973982E+01  7.59869910E+00
  7.59869910E+00 -1.51973982E+01  7.59869910E+00  7.59869910E+00 -1.51973982E+01
  7.59869910E+00  7.59869910E+00 -1.51973982E+01  7.59869910E+00  7.59869910E+00
 -1.51973982E+01  7.59869910E+00  7.59869910E+00 -1.51973982E+01  7.59869910E+00
  7.59869910E+00 -1.51973982E+01  7.59869910E+00  7.59869910E+00 -1.51973982E+01
  7.59869910E+00  7.59869910E+00 -1.51973982E+01  7.59869910E+00  7.59869910E+00
 -1.51973982E+01  7.59869910E+00  7.59869910E+00 -1.51973982E+01  7.59869910E+00
  7.59869910E+00 -1.51973982E+01  7.59869910E+00  7.59869910E+00 -1.51973982E+01
  7.59869910E+00  7.59869910E+00 -1.51973982E+01  7.59869910E+00  7.59869910E+00
 -1.51973982E+01  7.59869910E+00  7.59869910E+00 -1.51973982E+01  7.59869910E+00
  7.59869910E+00 -1.51973982E+01  7.59869910E+00  7.59869910E+00 -1.51973982E+01
  7.59869910E+00  7.59869910E+00 -1.51973982E+01  7.59869910E+00  7.59869910E+00
 -1.51973982E+01  7.59869910E+00  7.59869910E+00 -1.51973982E+01  7.59869910E+00
  7.59869910E+00 -1.51973982E+01  7.59869910E+00  7.59869910E+00 -1.51973982E+01
  7.59869910E+00  7.59869910E+00 -1.51973982E+01  7.59869910E+00  7.59869910E+00
 -1.51973982E+01  7.59869910E+00  7.59869910E+00 -1.51973982E+01  7.59869910E+00
  7.59869910E+00 -1.51973982E+01  7.59869910E+00  7.59869910E+00 -1.51973982E+01
  7.59869910E+00  7.59869910E+00 -1.51973982E+01  7.59869910E+00  7.59869910E+00
 -1.51973982E+01  7.59869910E+00  7.59869910E+00 -1.51973982E+01  7.59869910E+00
  7.59869910E+00 -1.51973982E+01  7.59869910E+00  7.59869910E+00 -1.51973982E+01
  7.59869910E+00  7.59869910E+00 -1.51973982E+01  7.59869910E+00  7.59869910E+00
 -1.51973982E+01  7.59869910E+00  7.59869910E+00 -1.51973982E+01  7.59869910E+00
  7.59869910E+00 -1.51973982E+01  7.59869910E+00  7.59869910E+00 -1.51973982E+01
  7.59869910E+00  7.59869910E+00 -1.51973982E+01  7.59869910E+00  7.59869910E+00
 -1.51973982E+01  7.59869910E+00  7.59869910E+00 -1.51973982E+01  7.59869910E+00
  7.59869910E+00 -1.51973982E+01  7.59869910E+00  7.59869910E+00 -1.51973982E+01
  7.59869910E+00  7.59869910E+00 -1.51973982E+01  7.59869910E+00  7.59869910E+00
 -1.51973982E+01  7.59869910E+00  7.59869910E+00 -1.51973982E+01  7.59869910E+00
  7.59869910E+00 -1.51973982E+01  7.59869910E+00  7.59869910E+00 -1.51973982E+01
  7.59869910E+00  7.59869910E+00 -1.51973982E+01  7.59869910E+00  7.59869910E+00
 -1.51973982E+01  7.59869910E+00  7.59869910E+00 -1.51973982E+01  7.59869910E+00
  7.59869910E+00 -1.51973982E+01  7.59869910E+00  7.59869910E+00 -1.51973982E+01
  7.59869910E+00  7.59869910E+00 -1.51973982E+01  7.59869910E+00  7.59869910E+00
 -1.51973982E+01  7.59869910E+00  7.59869910E+00 -1.51973982E+01  7.59869910E+00
  7.59869910E+00 -1.51973982E+01  7.59869910E+00  7.59869910E+00 -1.51973982E+01
  7.59869910E+00  7.59869910E+00 -1.51973982E+01  7.59869910E+00  7.59869910E+00
 -1.51973982E+01  7.59869910E+00  7.59869910E+00 -1.51973982E+01  7.59869910E+00
  7.59869910E+00 -1.51973982E+01  7.59869910E+00  7.59869910E+00 -1.51973982E+01
  7.59869910E+00  7.59869910E+00 -1.51973982E+01  7.59869910E+00  7.59869910E+00
 -1.51973982E+01  7.59869910E+00  7.59869910E+00 -1.51973982E+01  7.59869910E+00
  7.59869910E+00 -1.51973982E+01  7.59869910E+00  7.59869910E+00 -1.51973982E+01
  7.59869910E+00  7.59869910E+00 -1.51973982E+01  7.59869910E+00  7.59869910E+00
 -1.51973982E+01  7.59869910E+00  7.59869910E+00 -1.51973982E+01  7.59869910E+00
  7.59869910E+00 -1.51973982E+01  7.59869910E+00  7.59869910E+00 -1.51973982E+01
  7.59869910E+00  7.59869910E+00 -1.51973982E+01  7.59869910E+00  7.59869910E+00
 -1.51973982E+01  7.59869910E+00  7.59869910E+00 -1.51973982E+01  7.59869910E+00
  7.59869910E+00 -1.51973982E+01  7.59869910E+00  7.59869910E+00 -1.51973982E+01
  7.59869910E+00  7.59869910E+00 -1.51973982E+01  7.59869910E+00  7.59869910E+00
 -1.51973982E+01  7.59869910E+00  7.59869910E+00 -1.51973982E+01  7.59869910E+00
  7.59869910E+00 -1.51973982E+01  7.59869910E+00  7.59869910E+00 -1.51973982E+01
  7.59869910E+00  7.59869910E+00 -1.51973982E+01  7.59869910E+00  7.59869910E+00
 -1.51973982E+01  7.59869910E+00  7.59869910E+00 -1.51973982E+01  7.59869910E+00
  7.59869910E+00 -1.51973982E+01  7.59869910E+00  7.59869910E+00 -1.51973982E+01
  7.59869910E+00  7.59869910E+00 -1.51973982E+01  7.59869910E+00  7.59869910E+00
 -1.51973982E+01  7.59869910E+00  7.59869910E+00 -1.51973982E+01  7.59869910E+00
  7.59869910E+00 -1.51973982E+01  7.59869910E+00  7.59869910E+00 -1.51973982E+01
  7.59869910E+00  7.59869910E+00 -1.51973982E+01  7.59869910E+00  7.59869910E+00
 -1.51973982E+01  7.59869910E+00  7.59869910E+00 -1.51973982E+01  7.59869910E+00
  7.59869910E+00 -1.51973982E+01  7.59869910E+00  7.59869910E+00 -1.51973982E+01
  7.59869910E+00  7.59869910E+00 -1.51973982E+01  7.59869910E+00  7.59869910E+00
 -1.51973982E+01  7.59869910E+00  7.59869910E+00 -1.51973982E+01  7.59869910E+00
  7.59869910E+00 -1.51973982E+01  7.59869910E+00  7.59869910E+00 -1.51973982E+01
  7.59869910E+00  7.59869910E+00 -1.51973982E+01  7.59869910E+00  7.59869910E+00
 -1.51973982E+01  7.59869910E+00  7.59869910E+00 -1.51973982E+01  7.59869910E+00
  7.59869910E+00 -1.51973982E+01  7.59869910E+00  7.59869910E+00 -1.51973982E+01
  7.59869910E+00  7.59869910E+00 -1.51973982E+01  7.59869910E+00  7.59869910E+00
 -1.51973982E+01  7.59869910E+00  7.59869910E+00 -1.51973982E+01  7.59869910E+00
  7.59869910E+00 -1.51973982E+01  7.59869910E+00  7.59869910E+00 -1.51973982E+01
  7.59869910E+00  7.59869910E+00 -1.51973982E+01  7.59869910E+00  7.59869910E+00
 -1.51973982E+01  7.59869910E+00  7.59869910E+00 -1.51973982E+01  7.59869910E+00
  7.59869910E+00 -1.51973982E+01  7.59869910E+00  7.59869910E+00 -1.51973982E+01
  7.59869910E+00  7.59869910E+00 -1.51973982E+01  7.59869910E+00  7.59869910E+00
 -1.51973982E+01  7.59869910E+00  7.59869910E+00 -1.51973982E+01  7.59869910E+00
  7.59869910E+00 -1.51973982E+01  7.59869910E+00  7.59869910E+00 -1.51973982E+01
  7.59869910E+00  7.59869910E+00 -1.51973982E+01  7.59869910E+00  7.59869910E+00
 -1.51973982E+01  7.59869910E+00  7.59869910E+00 -1.51973982E+01  7.59869910E+00
  7.59869910E+00 -1.51973982E+01  7.59869910E+00  7.59869910E+00 -1.51973982E+01
  7.59869910E+00  7.59869910E+00 -1.51973982E+01  7.59869910E+00  7.59869910E+00
 -1.51973982E+01  7.59869910E+00  7.59869910E+00 -1.51973982E+01  7.59869910E+00
  7.59869910E+00 -1.51973982E+01  7.59869910E+00  7.59869910E+00 -1.51973982E+01
  7.59869910E+00  7.59869910E+00 -1.51973982E+01  7.59869910E+00  7.59869910E+00
 -1.51973982E+01  7.59869910E+00  7.59869910E+00 -1.51973982E+01  7.59869910E+00
  7.59869910E+00 -1.51973982E+01  7.59869910E+00  7.59869910E+00 -1.51973982E+01
  7.59869910E+00  7.59869910E+00 -1.51973982E+01  7.59869910E+00  7.59869910E+00
 -1.51973982E+01  7.59869910E+00  7.59869910E+00 -1.51973982E+01  7.59869910E+00
  7.59869910E+00 -1.51973982E+01  7.59869910E+00  7.59869910E+00 -1.51973982E+01
  7.59869910E+00  7.59869910E+00 -1.51973982E+01  7.59869910E+00  7.59869910E+00
 -1.51973982E+01  7.59869910E+00  7.59869910E+00 -1.51973982E+01  7.59869910E+00
  7.59869910E+00 -1.51973982E+01  7.59869910E+00  7.59869910E+00 -1.51973982E+01
  7.59869910E+00  7.59869910E+00 -1.51973982E+01  7.59869910E+00  7.59869910E+00
 -1.51973982E+01  7.59869910E+00  7.59869910E+00 -1.51973982E+01  7.59869910E+00
  7.59869910E+00 -1.51973982E+01  7.59869910E+00  7.59869910E+00 -1.51973982E+01
  7.59869910E+00  7.59869910E+00 -1.51973982E+01  7.59869910E+00  7.59869910E+00
 -1.51973982E+01  7.59869910E+00  7.59869910E+00 -1.51973982E+01  7.59869910E+00
  7.59869910E+00 -1.51973982E+01  7.59869910E+00  7.59869910E+00 -1.51973982E+01
  7.59869910E+00  7.59869910E+00 -1.51973982E+01  7.59869910E+00  7.59869910E+00
 -1.51973982E+01  7.59869910E+00  7.59869910E+00 -1.51973982E+01  7.59869910E+00
  7.59869910E+00 -1.51973982E+01  7.59869910E+00  7.59869910E+00 -1.51973982E+01
  7.59869910E+00  7.59869910E+00 -1.51973982E+01  7.59869910E+00  7.59869910E+00
 -1.51973982E+01  7.59869910E+00  7.59869910E+00 -1.51973982E+01  7.59869910E+00
  7.59869910E+00 -1.51973982E+01  7.59869910E+00  7.59869910E+00 -1.51973982E+01
  7.59869910E+00  7.59869910E+00 -1.51973982E+01  7.59869910E+00  7.59869910E+00
 -1.51973982E+01  7.59869910E+00  7.59869910E+00 -1.51973982E+01  7.59869910E+00
  7.59869910E+00 -1.51973982E+01  7.59869910E+00  7.59869910E+00 -1.51973982E+01
  7.59869910E+00  7.59869910E+00 -1.51973982E+01  7.59869910E+00  7.59869910E+00
 -1.51973982E+01  7.59869910E+00  7.59869910E+00 -1.51973982E+01  7.59869910E+00
  7.59869910E+00 -1.51973982E+01  7.59869910E+00  7.59869910E+00 -1.51973982E+01
  7.59869910E+00  7.59869910E+00 -1.51973982E+01  7.59869910E+00  7.59869910E+00
 -1.51973982E+01  7.59869910E+00  7.59869910E+00 -1.51973982E+01  7.59869910E+00
  7.59869910E+00 -1.51973982E+01  7.59869910E+00  7.59869910E+00 -1.51973982E+01
  7.59869910E+00  7.59869910E+00 -1.51973982E+01  7.59869910E+00  7.59869910E+00
 -1.51973982E+01  7.59869910E+00  7.59869910E+00 -1.51973982E+01  7.59869910E+00
  7.59869910E+00 -1.51973982E+01  7.59869910E+00  7.59869910E+00 -1.51973982E+01
  7.59869910E+00  7.59869910E+00 -1.51973982E+01  7.59869910E+00  7.59869910E+00
 -1.51973982E+01  7.59869910E+00  7.59869910E+00 -1.51973982E+01  7.59869910E+00
  7.59869910E+00 -1.51973982E+01  7.59869910E+00  7.59869910E+00 -1.51973982E+01
  7.59869910E+00  7.59869910E+00 -1.51973982E+01  7.59869910E+00  7.59869910E+00
 -1.51973982E+01  7.59869910E+00  7.59869910E+00 -1.51973982E+01  7.59869910E+00
  7.59869910E+00 -1.51973982E+01  7.59869910E+00  7.59869910E+00 -1.51973982E+01
  7.59869910E+00  7.59869910E+00 -1.51973982E+01  7.59869910E+00  7.59869910E+00
 -1.51973982E+01  7.59869910E+00  7.59869910E+00 -1.51973982E+01  7.59869910E+00
  7.59869910E+00 -1.51973982E+01  7.59869910E+00  7.59869910E+00 -1.51973982E+01
  7.59869910E+00  7.59869910E+00 -1.51973982E+01  7.59869910E+00  7.59869910E+00
 -1.51973982E+01  7.59869910E+00  7.59869910E+00 -1.51973982E+01  7.59869910E+00
  7.59869910E+00 -1.51973982E+01  7.59869910E+00  7.59869910E+00 -1.51973982E+01
  7.59869910E+00  7.59869910E+00 -1.51973982E+01  7.59869910E+00  7.59869910E+00
 -1.51973982E+01  7.59869910E+00  7.59869910E+00 -1.51973982E+01  7.59869910E+00
  7.59869910E+00 -1.51973982E+01  7.59869910E+00  7.59869910E+00 -1.51973982E+01
  7.59869910E+00  7.59869910E+00 -1.51973982E+01  7.59869910E+00  7.59869910E+00
 -1.51973982E+01  7.59869910E+00  7.59869910E+00 -1.51973982E+01  7.59869910E+00
  7.59869910E+00 -1.51973982E+01  7.59869910E+00  7.59869910E+00 -1.51973982E+01
  7.59869910E+00  7.59869910E+00 -1.51973982E+01  7.59869910E+00  7.59869910E+00
 -1.51973982E+01  7.59869910E+00  7.59869910E+00 -1.51973982E+01  7.59869910E+00
  7.59869910E+00 -1.51973982E+01  7.59869910E+00  7.59869910E+00 -1.51973982E+01
  7.59869910E+00  7.59869910E+00 -1.51973982E+01  7.59869910E+00  7.59869910E+00
 -1.51973982E+01  7.59869910E+00  7.59869910E+00 -1.51973982E+01  7.59869910E+00
  7.59869910E+00 -1.51973982E+01  7.59869910E+00  7.59869910E+00 -1.51973982E+01
  7.59869910E+00  7.59869910E+00 -1.51973982E+01  7.59869910E+00  7.59869910E+00
 -1.51973982E+01  7.59869910E+00  7.59869910E+00 -1.51973982E+01  7.59869910E+00
  7.59869910E+00 -1.51973982E+01  7.59869910E+00  7.59869910E+00 -1.51973982E+01
  7.59869910E+00  7.59869910E+00 -1.51973982E+01  7.59869910E+00  7.59869910E+00
 -1.51973982E+01  7.59869910E+00  7.59869910E+00 -1.51973982E+01  7.59869910E+00
  7.59869910E+00 -1.51973982E+01  7.59869910E+00  7.59869910E+00 -1.51973982E+01
  7.59869910E+00  7.59869910E+00 -1.51973982E+01  7.59869910E+00  7.59869910E+00
 -1.51973982E+01  7.59869910E+00  7.59869910E+00 -1.51973982E+01  7.59869910E+00
  7.59869910E+00 -1.51973982E+01  7.59869910E+00  7.59869910E+00 -1.51973982E+01
  7.59869910E+00  7.59869910E+00 -1.51973982E+01  7.59869910E+00  7.59869910E+00
 -1.51973982E+01  7.59869910E+00  7.59869910E+00 -1.51973982E+01  7.59869910E+00
  7.59869910E+00 -1.51973982E+01  7.59869910E+00  7.59869910E+00 -1.51973982E+01
  7.59869910E+00  7.59869910E+00 -1.51973982E+01  7.59869910E+00  7.59869910E+00
 -1.51973982E+01  7.59869910E+00  7.59869910E+00 -1.51973982E+01  7.59869910E+00
  7.59869910E+00 -1.51973982E+01  7.59869910E+00  7.59869910E+00 -1.51973982E+01
  7.59869910E+00  7.59869910E+00 -1.51973982E+01  7.59869910E+00  7.59869910E+00
 -1.51973982E+01  7.59869910E+00  7.59869910E+00 -1.51973982E+01  7.59869910E+00
  7.59869910E+00 -1.51973982E+01  7.59869910E+00  7.59869910E+00 -1.51973982E+01
  7.59869910E+00  7.59869910E+00 -1.51973982E+01  7.59869910E+00  7.59869910E+00
 -1.51973982E+01  7.59869910E+00  7.59869910E+00 -1.51973982E+01  7.59869910E+00
  7.59869910E+00 -1.51973982E+01  7.59869910E+00  7.59869910E+00 -1.51973982E+01
  7.59869910E+00  7.59869910E+00 -1.51973982E+01  7.59869910E+00  7.59869910E+00
 -1.51973982E+01  7.59869910E+00  7.59869910E+00 -1.51973982E+01  7.59869910E+00
  7.59869910E+00 -1.51973982E+01  7.59869910E+00  7.59869910E+00 -1.51973982E+01
  7.59869910E+00  7.59869910E+00 -1.51973982E+01  7.59869910E+00  7.59869910E+00
 -1.51973982E+01  7.59869910E+00  7.59869910E+00 -1.51973982E+01  7.59869910E+00
  7.59869910E+00 -1.51973982E+01  7.59869910E+00  7.59869910E+00 -1.51973982E+01
  7.59869910E+00  7.59869910E+00 -1.51973982E+01  7.59869910E+00  7.59869910E+00
 -1.51973982E+01  7.59869910E+00  7.59869910E+00 -1.51973982E+01  7.59869910E+00
  7.59869910E+00 -1.51973982E+01  7.59869910E+00  7.59869910E+00 -1.51973982E+01
  7.59869910E+00  7.59869910E+00 -1.51973982E+01  7.59869910E+00  7.59869910E+00
 -1.51973982E+01  7.59869910E+00  7.59869910E+00 -1.51973982E+01  7.59869910E+00
  7.59869910E+00 -1.51973982E+01  7.59869910E+00  7.59869910E+00 -1.51973982E+01
  7.59869910E+00  7.59869910E+00 -1.51973982E+01  7.59869910E+00  7.59869910E+00
 -1.51973982E+01  7.59869910E+00  7.59869910E+00 -1.51973982E+01  7.59869910E+00
  7.59869910E+00 -1.51973982E+01  7.59869910E+00  7.59869910E+00 -1.51973982E+01
  7.59869910E+00  7.59869910E+00 -1.51973982E+01  7.59869910E+00  7.59869910E+00
 -1.51973982E+01  7.59869910E+00  7.59869910E+00 -1.51973982E+01  7.59869910E+00
  7.59869910E+00 -1.51973982E+01  7.59869910E+00  7.59869910E+00 -1.51973982E+01
  7.59869910E+00  7.59869910E+00 -1.51973982E+01  7.59869910E+00  7.59869910E+00
 -1.51973982E+01  7.59869910E+00  7.59869910E+00 -1.51973982E+01  7.59869910E+00
  7.59869910E+00 -1.51973982E+01  7.59869910E+00  7.59869910E+00 -1.51973982E+01
  7.59869910E+00  7.59869910E+00 -1.51973982E+01  7.59869910E+00  7.59869910E+00
 -1.51973982E+01  7.59869910E+00  7.59869910E+00 -1.51973982E+01  7.59869910E+00
  7.59869910E+00 -1.51973982E+01  7.59869910E+00  7.59869910E+00 -1.51973982E+01
  7.59869910E+00  7.59869910E+00 -1.51973982E+01  7.59869910E+00  7.59869910E+00
 -1.51973982E+01  7.59869910E+00  7.59869910E+00 -1.51973982E+01  7.59869910E+00
  7.59869910E+00 -1.51973982E+01  7.59869910E+00  7.59869910E+00 -1.51973982E+01
  7.59869910E+00  7.59869910E+00 -1.51973982E+01  7.59869910E+00  7.59869910E+00
 -1.51973982E+01  7.59869910E+00  7.59869910E+00 -1.51973982E+01  7.59869910E+00
  7.59869910E+00 -1.51973982E+01  7.59869910E+00  7.59869910E+00 -1.51973982E+01
  7.59869910E+00  7.59869910E+00 -1.51973982E+01  7.59869910E+00  7.59869910E+00
 -1.51973982E+01  7.59869910E+00  7.59869910E+00 -1.51973982E+01  7.59869910E+00
  7.59869910E+00 -1.51973982E+01  7.59869910E+00  7.59869910E+00 -1.51973982E+01
  7.59869910E+00  7.59869910E+00 -1.51973982E+01  7.59869910E+00  7.59869910E+00
 -1.51973982E+01  7.59869910E+00  7.59869910E+00 -1.51973982E+01  7.59869910E+00
  7.59869910E+00 -1.51973982E+01  7.59869910E+00  7.59869910E+00 -1.51973982E+01
  7.59869910E+00  7.59869910E+00 -1.51973982E+01  7.59869910E+00  7.59869910E+00
 -1.51973982E+01  7.59869910E+00  7.59869910E+00 -1.51973982E+01  7.59869910E+00
  7.59869910E+00 -1.51973982E+01  7.59869910E+00  7.59869910E+00 -1.51973982E+01
  7.59869910E+00  7.59869910E+00 -1.51973982E+01  7.59869910E+00  7.59869910E+00
 -1.51973982E+01  7.59869910E+00  7.59869910E+00 -1.51973982E+01  7.59869910E+00
  7.59869910E+00 -1.51973982E+01  7.59869910E+00  7.59869910E+00 -1.51973982E+01
  7.59869910E+00  7.59869910E+00 -1.51973982E+01  7.59869910E+00  7.59869910E+00
 -1.51973982E+01  7.59869910E+00  7.59869910E+00 -1.51973982E+01  7.59869910E+00
  7.59869910E+00 -1.51973982E+01  7.59869910E+00  7.59869910E+00 -1.51973982E+01
  7.59869910E+00  7.59869910E+00 -1.51973982E+01  7.59869910E+00  7.59869910E+00
 -1.51973982E+01  7.59869910E+00  7.59869910E+00 -1.51973982E+01  7.59869910E+00
  7.59869910E+00 -1.51973982E+01  7.59869910E+00  7.59869910E+00 -1.51973982E+01
  7.59869910E+00  7.59869910E+00 -1.51973982E+01  7.59869910E+00  7.59869910E+00
 -1.51973982E+01  7.59869910E+00  7.59869910E+00 -1.51973982E+01  7.59869910E+00
  7.59869910E+00 -1.51973982E+01  7.59869910E+00  7.59869910E+00 -1.51973982E+01
  7.59869910E+00  7.59869910E+00 -1.51973982E+01  7.59869910E+00  7.59869910E+00
 -1.51973982E+01  7.59869910E+00  7.59869910E+00 -1.51973982E+01  7.59869910E+00
  7.59869910E+00 -1.51973982E+01  7.59869910E+00  7.59869910E+00 -1.51973982E+01
  7.59869910E+00  7.59869910E+00 -1.51973982E+01  7.59869910E+00  7.59869910E+00
 -1.51973982E+01  7.59869910E+00  7.59869910E+00 -1.51973982E+01  7.59869910E+00
  7.59869910E+00 -1.51973982E+01  7.59869910E+00  7.59869910E+00 -1.51973982E+01
  7.59869910E+00  7.59869910E+00 -1.51973982E+01  7.59869910E+00  7.59869910E+00
 -1.51973982E+01  7.59869910E+00  7.59869910E+00 -1.51973982E+01  7.59869910E+00
  7.59869910E+00 -1.51973982E+01  7.59869910E+00  7.59869910E+00 -1.51973982E+01
  7.59869910E+00  7.59869910E+00 -1.51973982E+01  7.59869910E+00  7.59869910E+00
 -1.51973982E+01  7.59869910E+00  7.59869910E+00 -1.51973982E+01  7.59869910E+00
  7.59869910E+00 -1.51973982E+01  7.59869910E+00  7.59869910E+00 -1.51973982E+01
  7.59869910E+00  7.59869910E+00 -1.51973982E+01  7.59869910E+00  7.59869910E+00
 -1.51973982E+01  7.59869910E+00  7.59869910E+00 -1.51973982E+01  7.59869910E+00
  7.59869910E+00 -1.51973982E+01  7.59869910E+00  7.59869910E+00 -1.51973982E+01
  7.59869910E+00  7.59869910E+00 -1.51973982E+01  7.59869910E+00  7.59869910E+00
 -1.51973982E+01  7.59869910E+00  7.59869910E+00 -1.51973982E+01  7.59869910E+00
  7.59869910E+00 -1.51973982E+01  7.59869910E+00  7.59869910E+00 -1.51973982E+01
  7.59869910E+00  7.59869910E+00 -1.51973982E+01  7.59869910E+00  7.59869910E+00
 -1.51973982E+01  7.59869910E+00  7.59869910E+00 -1.51973982E+01  7.59869910E+00
  7.59869910E+00 -1.51973982E+01  7.59869910E+00  7.59869910E+00 -1.51973982E+01
  7.59869910E+00  7.59869910E+00 -1.51973982E+01  7.59869910E+00  7.59869910E+00
 -1.51973982E+01  7.59869910E+00  7.59869910E+00 -1.51973982E+01  7.59869910E+00
  7.59869910E+00 -1.51973982E+01  7.59869910E+00  7.59869910E+00 -1.51973982E+01
  7.59869910E+00  7.59869910E+00 -1.51973982E+01  7.59869910E+00  7.59869910E+00
 -1.51973982E+01  7.59869910E+00  7.59869910E+00 -1.51973982E+01  7.59869910E+00
  7.59869910E+00 -1.51973982E+01  7.59869910E+00  7.59869910E+00 -1.51973982E+01
  7.59869910E+00  7.59869910E+00 -1.51973982E+01  7.59869910E+00  7.59869910E+00
 -1.51973982E+01  7.59869910E+00  7.59869910E+00 -1.51973982E+01  7.59869910E+00
  7.59869910E+00 -1.51973982E+01  7.59869910E+00  7.59869910E+00 -1.51973982E+01
  7.59869910E+00  7.59869910E+00 -1.51973982E+01  7.59869910E+00  7.59869910E+00
 -1.51973982E+01  7.59869910E+00  7.59869910E+00 -1.51973982E+01  7.59869910E+00
  7.59869910E+00 -1.51973982E+01  7.59869910E+00  7.59869910E+00 -1.51973982E+01
  7.59869910E+00  7.59869910E+00 -1.51973982E+01  7.59869910E+00  7.59869910E+00
 -1.51973982E+01  7.59869910E+00  7.59869910E+00 -1.51973982E+01  7.59869910E+00
  7.59869910E+00 -1.51973982E+01  7.59869910E+00  7.59869910E+00 -1.51973982E+01
  7.59869910E+00  7.59869910E+00 -1.51973982E+01  7.59869910E+00  7.59869910E+00
 -1.51973982E+01  7.59869910E+00  7.59869910E+00 -1.51973982E+01  7.59869910E+00
  7.59869910E+00 -1.51973982E+01  7.59869910E+00  7.59869910E+00 -1.51973982E+01
  7.59869910E+00  7.59869910E+00 -1.51973982E+01  7.59869910E+00  7.59869910E+00
 -1.51973982E+01  7.59869910E+00  7.59869910E+00 -1.51973982E+01  7.59869910E+00
  7.59869910E+00 -1.51973982E+01  7.59869910E+00  7.59869910E+00 -1.51973982E+01
  7.59869910E+00  7.59869910E+00 -1.51973982E+01  7.59869910E+00  7.59869910E+00
 -1.51973982E+01  7.59869910E+00  7.59869910E+00 -1.51973982E+01  7.59869910E+00
  7.59869910E+00 -1.51973982E+01  7.59869910E+00  7.59869910E+00 -1.51973982E+01
  7.59869910E+00  7.59869910E+00 -1.51973982E+01  7.59869910E+00  7.59869910E+00
 -1.51973982E+01  7.59869910E+00  7.59869910E+00 -1.51973982E+01  7.59869910E+00
  7.59869910E+00 -1.51973982E+01  7.59869910E+00  7.59869910E+00 -1.51973982E+01
  7.59869910E+00  7.59869910E+00 -1.51973982E+01  7.59869910E+00  7.59869910E+00
 -1.51973982E+01  7.59869910E+00  7.59869910E+00 -1.51973982E+01  7.59869910E+00
  7.59869910E+00 -1.51973982E+01  7.59869910E+00  7.59869910E+00 -1.51973982E+01
  7.59869910E+00  7.59869910E+00 -1.51973982E+01  7.59869910E+00  7.59869910E+00
 -1.51973982E+01  7.59869910E+00  7.59869910E+00 -1.51973982E+01  7.59869910E+00
  7.59869910E+00 -1.51973982E+01  7.59869910E+00  7.59869910E+00 -1.51973982E+01
  7.59869910E+00  7.59869910E+00 -1.51973982E+01  7.59869910E+00  7.59869910E+00
 -1.51973982E+01  7.59869910E+00  7.59869910E+00 -1.51973982E+01  7.59869910E+00
  7.59869910E+00 -1.51973982E+01  7.59869910E+00  7.59869910E+00 -1.51973982E+01
  7.59869910E+00  7.59869910E+00 -1.51973982E+01  7.59869910E+00  7.59869910E+00
 -1.51973982E+01  7.59869910E+00  7.59869910E+00 -1.51973982E+01  7.59869910E+00
  7.59869910E+00 -1.51973982E+01  7.59869910E+00  7.59869910E+00 -1.51973982E+01
  7.59869910E+00  7.59869910E+00 -1.51973982E+01  7.59869910E+00  7.59869910E+00
 -1.51973982E+01  7.59869910E+00  7.59869910E+00 -1.51973982E+01  7.59869910E+00
  7.59869910E+00 -1.51973982E+01  7.59869910E+00  7.59869910E+00 -1.51973982E+01
  7.59869910E+00  7.59869910E+00 -1.51973982E+01  7.59869910E+00  7.59869910E+00
 -1.51973982E+01  7.59869910E+00  7.59869910E+00 -1.51973982E+01  7.59869910E+00
  7.59869910E+00 -1.51973982E+01  7.59869910E+00  7.59869910E+00 -1.51973982E+01
  7.59869910E+00  7.59869910E+00 -1.51973982E+01  7.59869910E+00  7.59869910E+00
 -1.51973982E+01  7.59869910E+00  7.59869910E+00 -1.51973982E+01  7.59869910E+00
  7.59869910E+00 -1.51973982E+01  7.59869910E+00  7.59869910E+00 -1.51973982E+01
  7.59869910E+00  7.59869910E+00 -1.51973982E+01  7.59869910E+00  7.59869910E+00
 -1.51973982E+01  7.59869910E+00  7.59869910E+00 -1.51973982E+01  7.59869910E+00
  7.59869910E+00 -1.51973982E+01  7.59869910E+00  7.59869910E+00 -1.51973982E+01
  7.59869910E+00  7.59869910E+00 -1.51973982E+01  7.59869910E+00  7.59869910E+00
 -1.51973982E+01  7.59869910E+00  7.59869910E+00 -1.51973982E+01  7.59869910E+00
  7.59869910E+00 -1.51973982E+01  7.59869910E+00  7.59869910E+00 -1.51973982E+01
  7.59869910E+00  7.59869910E+00 -1.51973982E+01  7.59869910E+00  7.59869910E+00
 -1.51973982E+01  7.59869910E+00  7.59869910E+00 -1.51973982E+01  7.59869910E+00
  7.59869910E+00 -1.51973982E+01  7.59869910E+00  7.59869910E+00 -1.51973982E+01
  7.59869910E+00  7.59869910E+00 -1.51973982E+01  7.59869910E+00  7.59869910E+00
 -1.51973982E+01  7.59869910E+00  7.59869910E+00 -1.51973982E+01  7.59869910E+00
  7.59869910E+00 -1.51973982E+01  7.59869910E+00  7.59869910E+00 -1.51973982E+01
  7.59869910E+00  7.59869910E+00 -1.51973982E+01  7.59869910E+00  7.59869910E+00
 -1.51973982E+01  7.59869910E+00  7.59869910E+00 -1.51973982E+01  7.59869910E+00
  7.59869910E+00 -1.51973982E+01  7.59869910E+00  7.59869910E+00 -1.51973982E+01
  7.59869910E+00  7.59869910E+00 -1.51973982E+01  7.59869910E+00  7.59869910E+00
 -1.51973982E+01  7.59869910E+00  7.59869910E+00 -1.51973982E+01  7.59869910E+00
  7.59869910E+00 -1.51973982E+01  7.59869910E+00  7.59869910E+00 -1.51973982E+01
  7.59869910E+00  7.59869910E+00 -1.51973982E+01  7.59869910E+00  7.59869910E+00
 -1.51973982E+01  7.59869910E+00  7.59869910E+00 -1.51973982E+01  7.59869910E+00
  7.59869910E+00 -1.51973982E+01  7.59869910E+00  7.59869910E+00 -1.51973982E+01
  7.59869910E+00  7.59869910E+00 -1.51973982E+01  7.59869910E+00  7.59869910E+00
 -1.51973982E+01  7.59869910E+00  7.59869910E+00 -1.51973982E+01  7.59869910E+00
  7.59869910E+00 -1.51973982E+01  7.59869910E+00  7.59869910E+00 -1.51973982E+01
  7.59869910E+00  7.59869910E+00 -1.51973982E+01  7.59869910E+00  7.59869910E+00
 -1.51973982E+01  7.59869910E+00  7.59869910E+00 -1.51973982E+01  7.59869910E+00
  7.59869910E+00 -1.51973982E+01  7.59869910E+00  7.59869910E+00 -1.51973982E+01
  7.59869910E+00  7.59869910E+00 -1.51973982E+01  7.59869910E+00  7.59869910E+00
 -1.51973982E+01  7.59869910E+00  7.59869910E+00 -1.51973982E+01  7.59869910E+00
  7.59869910E+00 -1.51973982E+01  7.59869910E+00  7.59869910E+00 -1.51973982E+01
  7.59869910E+00  7.59869910E+00 -1.51973982E+01  7.59869910E+00  7.59869910E+00
 -1.51973982E+01  7.59869910E+00  7.59869910E+00 -1.51973982E+01  7.59869910E+00
  7.59869910E+00 -1.51973982E+01  7.59869910E+00  7.59869910E+00 -1.51973982E+01
  7.59869910E+00  7.59869910E+00 -1.51973982E+01  7.59869910E+00  7.59869910E+00
 -1.51973982E+01  7.59869910E+00  7.59869910E+00 -1.51973982E+01  7.59869910E+00
  7.59869910E+00 -1.51973982E+01  7.59869910E+00  7.59869910E+00 -1.51973982E+01
  7.59869910E+00  7.59869910E+00 -1.51973982E+01  7.59869910E+00  7.59869910E+00
 -1.51973982E+01  7.59869910E+00  7.59869910E+00 -1.51973982E+01  7.59869910E+00
  7.59869910E+00 -1.51973982E+01  7.59869910E+00  7.59869910E+00 -1.51973982E+01
  7.59869910E+00  7.59869910E+00 -1.51973982E+01  7.59869910E+00  7.59869910E+00
 -1.51973982E+01  7.59869910E+00  7.59869910E+00 -1.51973982E+01  7.59869910E+00
  7.59869910E+00 -1.51973982E+01  7.59869910E+00  7.59869910E+00 -1.51973982E+01
  7.59869910E+00  7.59869910E+00 -1.51973982E+01  7.59869910E+00  7.59869910E+00
 -1.51973982E+01  7.59869910E+00  7.59869910E+00 -1.51973982E+01  7.59869910E+00
  7.59869910E+00 -1.51973982E+01  7.59869910E+00  7.59869910E+00 -1.51973982E+01
  7.59869910E+00  7.59869910E+00 -1.51973982E+01  7.59869910E+00  7.59869910E+00
 -1.51973982E+01  7.59869910E+00  7.59869910E+00 -1.51973982E+01  7.59869910E+00
  7.59869910E+00 -1.51973982E+01  7.59869910E+00  7.59869910E+00 -1.51973982E+01
  7.59869910E+00  7.59869910E+00 -1.51973982E+01  7.59869910E+00  7.59869910E+00
 -1.51973982E+01  7.59869910E+00  7.59869910E+00 -1.51973982E+01  7.59869910E+00
  7.59869910E+00 -1.51973982E+01  7.59869910E+00  7.59869910E+00 -1.51973982E+01
  7.59869910E+00  7.59869910E+00 -1.51973982E+01  7.59869910E+00  7.59869910E+00
 -1.51973982E+01  7.59869910E+00  7.59869910E+00 -1.51973982E+01  7.59869910E+00
  7.59869910E+00 -1.51973982E+01  7.59869910E+00  7.59869910E+00 -1.51973982E+01
  7.59869910E+00  7.59869910E+00 -1.51973982E+01  7.59869910E+00  7.59869910E+00
 -1.51973982E+01  7.59869910E+00  7.59869910E+00 -1.51973982E+01  7.59869910E+00
  7.59869910E+00 -1.51973982E+01  7.59869910E+00  7.59869910E+00 -1.51973982E+01
  7.59869910E+00  7.59869910E+00 -1.51973982E+01  7.59869910E+00  7.59869910E+00
 -1.51973982E+01  7.59869910E+00  7.59869910E+00 -1.51973982E+01  7.59869910E+00
  7.59869910E+00 -1.51973982E+01  7.59869910E+00  7.59869910E+00 -1.51973982E+01
  7.59869910E+00  7.59869910E+00 -1.51973982E+01  7.59869910E+00  7.59869910E+00
 -1.51973982E+01  7.59869910E+00  7.59869910E+00 -1.51973982E+01  7.59869910E+00
  7.59869910E+00 -1.51973982E+01  7.59869910E+00  7.59869910E+00 -1.51973982E+01
  7.59869910E+00  7.59869910E+00 -1.51973982E+01  7.59869910E+00  7.59869910E+00
 -1.51973982E+01  7.59869910E+00  7.59869910E+00 -1.51973982E+01  7.59869910E+00
  7.59869910E+00 -1.51973982E+01  7.59869910E+00  7.59869910E+00 -1.51973982E+01
  7.59869910E+00  7.59869910E+00 -1.51973982E+01  7.59869910E+00  7.59869910E+00
 -1.51973982E+01  7.59869910E+00  7.59869910E+00 -1.51973982E+01  7.59869910E+00
  7.59869910E+00 -1.51973982E+01  7.59869910E+00  7.59869910E+00 -1.51973982E+01
  7.59869910E+00  7.59869910E+00 -1.51973982E+01  7.59869910E+00  7.59869910E+00
 -1.51973982E+01  7.59869910E+00  7.59869910E+00 -1.51973982E+01  7.59869910E+00
  7.59869910E+00 -1.51973982E+01  7.59869910E+00  7.59869910E+00 -1.51973982E+01
  7.59869910E+00  7.59869910E+00 -1.51973982E+01  7.59869910E+00  7.59869910E+00
 -1.51973982E+01  7.59869910E+00  7.59869910E+00 -1.51973982E+01  7.59869910E+00
  7.59869910E+00 -1.51973982E+01  7.59869910E+00  7.59869910E+00 -1.51973982E+01
  7.59869910E+00  7.59869910E+00 -1.51973982E+01  7.59869910E+00  7.59869910E+00
 -1.51973982E+01  7.59869910E+00  7.59869910E+00 -1.51973982E+01  7.59869910E+00
  7.59869910E+00 -1.51973982E+01  7.59869910E+00  7.59869910E+00 -1.51973982E+01
  7.59869910E+00  7.59869910E+00 -1.51973982E+01  7.59869910E+00  7.59869910E+00
 -1.51973982E+01  7.59869910E+00  7.59869910E+00 -1.51973982E+01  7.59869910E+00
  7.59869910E+00 -1.51973982E+01  7.59869910E+00  7.59869910E+00 -1.51973982E+01
  7.59869910E+00  7.59869910E+00 -1.51973982E+01  7.59869910E+00  7.59869910E+00
 -1.51973982E+01  7.59869910E+00  7.59869910E+00 -1.51973982E+01  7.59869910E+00
  7.59869910E+00 -1.51973982E+01  7.59869910E+00  7.59869910E+00 -1.51973982E+01
  7.59869910E+00  7.59869910E+00 -1.51973982E+01  7.59869910E+00  7.59869910E+00
 -1.51973982E+01  7.59869910E+00  7.59869910E+00 -1.51973982E+01  7.59869910E+00
  7.59869910E+00 -1.51973982E+01  7.59869910E+00  7.59869910E+00 -1.51973982E+01
  7.59869910E+00  7.59869910E+00 -1.51973982E+01  7.59869910E+00  7.59869910E+00
 -1.51973982E+01  7.59869910E+00  7.59869910E+00 -1.51973982E+01  7.59869910E+00
  7.59869910E+00 -1.51973982E+01  7.59869910E+00  7.59869910E+00 -1.51973982E+01
  7.59869910E+00  7.59869910E+00 -1.51973982E+01  7.59869910E+00  7.59869910E+00
 -1.51973982E+01  7.59869910E+00  7.59869910E+00 -1.51973982E+01  7.59869910E+00
  7.59869910E+00 -1.51973982E+01  7.59869910E+00  7.59869910E+00 -1.51973982E+01
  7.59869910E+00  7.59869910E+00 -1.51973982E+01  7.59869910E+00  7.59869910E+00
 -1.51973982E+01  7.59869910E+00  7.59869910E+00 -1.51973982E+01  7.59869910E+00
  7.59869910E+00 -1.51973982E+01  7.59869910E+00  7.59869910E+00 -1.51973982E+01
  7.59869910E+00  7.59869910E+00 -1.51973982E+01  7.59869910E+00  7.59869910E+00
 -1.51973982E+01  7.59869910E+00  7.59869910E+00 -1.51973982E+01  7.59869910E+00
  7.59869910E+00 -1.51973982E+01  7.59869910E+00  7.59869910E+00 -1.51973982E+01
  7.59869910E+00  7.59869910E+00 -1.51973982E+01  7.59869910E+00  7.59869910E+00
 -1.51973982E+01  7.59869910E+00  7.59869910E+00 -1.51973982E+01  7.59869910E+00
  7.59869910E+00 -1.51973982E+01  7.59869910E+00  7.59869910E+00 -1.51973982E+01
  7.59869910E+00  7.59869910E+00 -1.51973982E+01  7.59869910E+00  7.59869910E+00
 -1.51973982E+01  7.59869910E+00  7.59869910E+00 -1.51973982E+01  7.59869910E+00
  7.59869910E+00 -1.51973982E+01  7.59869910E+00  7.59869910E+00 -1.51973982E+01
  7.59869910E+00  7.59869910E+00 -1.51973982E+01  7.59869910E+00  7.59869910E+00
 -1.51973982E+01  7.59869910E+00  7.59869910E+00 -1.51973982E+01  7.59869910E+00
  7.59869910E+00 -1.51973982E+01  7.59869910E+00  7.59869910E+00 -1.51973982E+01
  7.59869910E+00  7.59869910E+00 -1.51973982E+01  7.59869910E+00  7.59869910E+00
 -1.51973982E+01  7.59869910E+00  7.59869910E+00 -1.51973982E+01  7.59869910E+00
  7.59869910E+00 -1.51973982E+01  7.59869910E+00  7.59869910E+00 -1.51973982E+01
  7.59869910E+00  7.59869910E+00 -1.51973982E+01  7.59869910E+00  7.59869910E+00
 -1.51973982E+01  7.59869910E+00  7.59869910E+00 -1.51973982E+01  7.59869910E+00
  7.59869910E+00 -1.51973982E+01  7.59869910E+00  7.59869910E+00 -1.51973982E+01
  7.59869910E+00  7.59869910E+00 -1.51973982E+01  7.59869910E+00  7.59869910E+00
 -1.51973982E+01  7.59869910E+00  7.59869910E+00 -1.51973982E+01  7.59869910E+00
  7.59869910E+00 -1.51973982E+01  7.59869910E+00  7.59869910E+00 -1.51973982E+01
  7.59869910E+00  7.59869910E+00 -1.51973982E+01  7.59869910E+00  7.59869910E+00
 -1.51973982E+01  7.59869910E+00  7.59869910E+00 -1.51973982E+01  7.59869910E+00
  7.59869910E+00 -1.51973982E+01  7.59869910E+00  7.59869910E+00 -1.51973982E+01
  7.59869910E+00  7.59869910E+00 -1.51973982E+01  7.59869910E+00  7.59869910E+00
 -1.51973982E+01  7.59869910E+00  7.59869910E+00 -1.51973982E+01  7.59869910E+00
  7.59869910E+00 -1.51973982E+01  7.59869910E+00  7.59869910E+00 -1.51973982E+01
  7.59869910E+00  7.59869910E+00 -1.51973982E+01  7.59869910E+00  7.59869910E+00
 -1.51973982E+01  7.59869910E+00  7.59869910E+00 -1.51973982E+01  7.59869910E+00
  7.59869910E+00 -1.51973982E+01  7.59869910E+00  7.59869910E+00 -1.51973982E+01
  7.59869910E+00  7.59869910E+00 -1.51973982E+01  7.59869910E+00  7.59869910E+00
 -1.51973982E+01  7.59869910E+00  7.59869910E+00 -1.51973982E+01  7.59869910E+00
  7.59869910E+00 -1.51973982E+01  7.59869910E+00  7.59869910E+00 -1.51973982E+01
  7.59869910E+00  7.59869910E+00 -1.51973982E+01  7.59869910E+00  7.59869910E+00
 -1.51973982E+01  7.59869910E+00  7.59869910E+00 -1.51973982E+01  7.59869910E+00
  7.59869910E+00 -1.51973982E+01  7.59869910E+00  7.59869910E+00 -1.51973982E+01
  7.59869910E+00  7.59869910E+00 -1.51973982E+01  7.59869910E+00  7.59869910E+00
 -1.51973982E+01  7.59869910E+00  7.59869910E+00 -1.51973982E+01  7.59869910E+00
  7.59869910E+00 -1.51973982E+01  7.59869910E+00  7.59869910E+00 -1.51973982E+01
  7.59869910E+00  7.59869910E+00 -1.51973982E+01  7.59869910E+00  7.59869910E+00
 -1.51973982E+01  7.59869910E+00  7.59869910E+00 -1.51973982E+01  7.59869910E+00
  7.59869910E+00 -1.51973982E+01  7.59869910E+00  7.59869910E+00 -1.51973982E+01
  7.59869910E+00  7.59869910E+00 -1.51973982E+01  7.59869910E+00  7.59869910E+00
 -1.51973982E+01  7.59869910E+00  7.59869910E+00 -1.51973982E+01  7.59869910E+00
  7.59869910E+00 -1.51973982E+01  7.59869910E+00  7.59869910E+00 -1.51973982E+01
  7.59869910E+00  7.59869910E+00 -1.51973982E+01  7.59869910E+00  7.59869910E+00
 -1.51973982E+01  7.59869910E+00  7.59869910E+00 -1.51973982E+01  7.59869910E+00
  7.59869910E+00 -1.51973982E+01  7.59869910E+00  7.59869910E+00 -1.51973982E+01
  7.59869910E+00  7.59869910E+00 -1.51973982E+01  7.59869910E+00  7.59869910E+00
 -1.51973982E+01  7.59869910E+00  7.59869910E+00 -1.51973982E+01  7.59869910E+00
  7.59869910E+00 -1.51973982E+01  7.59869910E+00  7.59869910E+00 -1.51973982E+01
  7.59869910E+00  7.59869910E+00 -1.51973982E+01  7.59869910E+00  7.59869910E+00
 -1.51973982E+01  7.59869910E+00  7.59869910E+00 -1.51973982E+01  7.59869910E+00
  7.59869910E+00 -1.51973982E+01  7.59869910E+00  7.59869910E+00 -1.51973982E+01
  7.59869910E+00  7.59869910E+00 -1.51973982E+01  7.59869910E+00  7.59869910E+00
 -1.51973982E+01  7.59869910E+00  7.59869910E+00 -1.51973982E+01  7.59869910E+00
  7.59869910E+00 -1.51973982E+01  7.59869910E+00  7.59869910E+00 -1.51973982E+01
  7.59869910E+00  7.59869910E+00 -1.51973982E+01  7.59869910E+00  7.59869910E+00
 -1.51973982E+01  7.59869910E+00  7.59869910E+00 -1.51973982E+01  7.59869910E+00
  7.59869910E+00 -1.51973982E+01  7.59869910E+00  7.59869910E+00 -1.51973982E+01
  7.59869910E+00  7.59869910E+00 -1.51973982E+01  7.59869910E+00  7.59869910E+00
 -1.51973982E+01  7.59869910E+00  7.59869910E+00 -1.51973982E+01  7.59869910E+00
  7.59869910E+00 -1.51973982E+01  7.59869910E+00  7.59869910E+00 -1.51973982E+01
  7.59869910E+00  7.59869910E+00 -1.51973982E+01  7.59869910E+00  7.59869910E+00
 -1.51973982E+01  7.59869910E+00  7.59869910E+00 -1.51973982E+01  7.59869910E+00
  7.59869910E+00 -1.51973982E+01  7.59869910E+00  7.59869910E+00 -1.51973982E+01
  7.59869910E+00  7.59869910E+00 -1.51973982E+01  7.59869910E+00  7.59869910E+00
 -1.51973982E+01  7.59869910E+00  7.59869910E+00 -1.51973982E+01  7.59869910E+00
  7.59869910E+00 -1.51973982E+01  7.59869910E+00  7.59869910E+00 -1.51973982E+01
  7.59869910E+00  7.59869910E+00 -1.51973982E+01  7.59869910E+00  7.59869910E+00
 -1.51973982E+01  7.59869910E+00  7.59869910E+00 -1.51973982E+01  7.59869910E+00
  7.59869910E+00 -1.51973982E+01  7.59869910E+00  7.59869910E+00 -1.51973982E+01
  7.59869910E+00  7.59869910E+00 -1.51973982E+01  7.59869910E+00  7.59869910E+00
 -1.51973982E+01  7.59869910E+00  7.59869910E+00 -1.51973982E+01  7.59869910E+00
  7.59869910E+00 -1.51973982E+01  7.59869910E+00  7.59869910E+00 -1.51973982E+01
  7.59869910E+00  7.59869910E+00 -1.51973982E+01  7.59869910E+00  7.59869910E+00
 -1.51973982E+01  7.59869910E+00  7.59869910E+00 -1.51973982E+01  7.59869910E+00
  7.59869910E+00 -1.51973982E+01  7.59869910E+00  7.59869910E+00 -1.51973982E+01
  7.59869910E+00  7.59869910E+00 -1.51973982E+01  7.59869910E+00  7.59869910E+00
 -1.51973982E+01  7.59869910E+00  7.59869910E+00 -1.51973982E+01  7.59869910E+00
  7.59869910E+00 -1.51973982E+01  7.59869910E+00  7.59869910E+00 -1.51973982E+01
  7.59869910E+00  7.59869910E+00 -1.51973982E+01  7.59869910E+00  7.59869910E+00
 -1.51973982E+01  7.59869910E+00  7.59869910E+00 -1.51973982E+01  7.59869910E+00
  7.59869910E+00 -1.51973982E+01  7.59869910E+00  7.59869910E+00 -1.51973982E+01
  7.59869910E+00  7.59869910E+00 -1.51973982E+01  7.59869910E+00  7.59869910E+00
 -1.51973982E+01  7.59869910E+00  7.59869910E+00 -1.51973982E+01  7.59869910E+00
  7.59869910E+00 -1.51973982E+01  7.59869910E+00  7.59869910E+00 -1.51973982E+01
  7.59869910E+00  7.59869910E+00 -1.51973982E+01  7.59869910E+00  7.59869910E+00
 -1.51973982E+01  7.59869910E+00  7.59869910E+00 -1.51973982E+01  7.59869910E+00
  7.59869910E+00 -1.51973982E+01  7.59869910E+00  7.59869910E+00 -1.51973982E+01
  7.59869910E+00  7.59869910E+00 -1.51973982E+01  7.59869910E+00  7.59869910E+00
 -1.51973982E+01  7.59869910E+00  7.59869910E+00 -1.51973982E+01  7.59869910E+00
  7.59869910E+00 -1.51973982E+01  7.59869910E+00  7.59869910E+00 -1.51973982E+01
  7.59869910E+00  7.59869910E+00 -1.51973982E+01  7.59869910E+00  7.59869910E+00
 -1.51973982E+01  7.59869910E+00  7.59869910E+00 -1.51973982E+01  7.59869910E+00
  7.59869910E+00 -1.51973982E+01  7.59869910E+00  7.59869910E+00 -1.51973982E+01
  7.59869910E+00  7.59869910E+00 -1.51973982E+01  7.59869910E+00  7.59869910E+00
 -1.51973982E+01  7.59869910E+00  7.59869910E+00 -1.51973982E+01  7.59869910E+00
  7.59869910E+00 -1.51973982E+01  7.59869910E+00  7.59869910E+00 -1.51973982E+01
  7.59869910E+00  7.59869910E+00 -1.51973982E+01  7.59869910E+00  7.59869910E+00
 -1.51973982E+01  7.59869910E+00  7.59869910E+00 -1.51973982E+01  7.59869910E+00
  7.59869910E+00 -1.51973982E+01  7.59869910E+00  7.59869910E+00 -1.51973982E+01
  7.59869910E+00  7.59869910E+00 -1.51973982E+01  7.59869910E+00  7.59869910E+00
 -1.51973982E+01  7.59869910E+00  7.59869910E+00 -1.51973982E+01  7.59869910E+00
  7.59869910E+00 -1.51973982E+01  7.59869910E+00  7.59869910E+00 -1.51973982E+01
  7.59869910E+00  7.59869910E+00 -1.51973982E+01  7.59869910E+00  7.59869910E+00
 -1.51973982E+01  7.59869910E+00  7.59869910E+00 -1.51973982E+01  7.59869910E+00
  7.59869910E+00 -1.51973982E+01  7.59869910E+00  7.59869910E+00 -1.51973982E+01
  7.59869910E+00  7.59869910E+00 -1.51973982E+01  7.59869910E+00  7.59869910E+00
 -1.51973982E+01  7.59869910E+00  7.59869910E+00 -1.51973982E+01  7.59869910E+00
  7.59869910E+00 -1.51973982E+01  7.59869910E+00  7.59869910E+00 -1.51973982E+01
  7.59869910E+00  7.59869910E+00 -1.51973982E+01  7.59869910E+00  7.59869910E+00
 -1.51973982E+01  7.59869910E+00  7.59869910E+00 -1.51973982E+01  7.59869910E+00
  7.59869910E+00 -1.51973982E+01  7.59869910E+00  7.59869910E+00 -1.51973982E+01
  7.59869910E+00  7.59869910E+00 -1.51973982E+01  7.59869910E+00  7.59869910E+00
 -1.51973982E+01  7.59869910E+00  7.59869910E+00 -1.51973982E+01  7.59869910E+00
  7.59869910E+00 -1.51973982E+01  7.59869910E+00  7.59869910E+00 -1.51973982E+01
  7.59869910E+00  7.59869910E+00 -1.51973982E+01  7.59869910E+00  7.59869910E+00
 -1.51973982E+01  7.59869910E+00  7.59869910E+00 -1.51973982E+01  7.59869910E+00
  7.59869910E+00 -1.51973982E+01  7.59869910E+00  7.59869910E+00 -1.51973982E+01
  7.59869910E+00  7.59869910E+00 -1.51973982E+01  7.59869910E+00  7.59869910E+00
 -1.51973982E+01  7.59869910E+00  7.59869910E+00 -1.51973982E+01  7.59869910E+00
  7.59869910E+00 -1.51973982E+01  7.59869910E+00  7.59869910E+00 -1.51973982E+01
  7.59869910E+00  7.59869910E+00 -1.51973982E+01  7.59869910E+00  7.59869910E+00
 -1.51973982E+01  7.59869910E+00  7.59869910E+00 -1.51973982E+01  7.59869910E+00
  7.59869910E+00 -1.51973982E+01  7.59869910E+00  7.59869910E+00 -1.51973982E+01
  7.59869910E+00  7.59869910E+00 -1.51973982E+01  7.59869910E+00  7.59869910E+00
 -1.51973982E+01  7.59869910E+00  7.59869910E+00 -1.51973982E+01  7.59869910E+00
  7.59869910E+00 -1.51973982E+01  7.59869910E+00  7.59869910E+00 -1.51973982E+01
  7.59869910E+00  7.59869910E+00 -1.51973982E+01  7.59869910E+00  7.59869910E+00
 -1.51973982E+01  7.59869910E+00  7.59869910E+00 -1.51973982E+01  7.59869910E+00
  7.59869910E+00 -1.51973982E+01  7.59869910E+00  7.59869910E+00 -1.51973982E+01
  7.59869910E+00  7.59869910E+00 -1.51973982E+01  7.59869910E+00  7.59869910E+00
 -1.51973982E+01  7.59869910E+00  7.59869910E+00 -1.51973982E+01  7.59869910E+00
  7.59869910E+00 -1.51973982E+01  7.59869910E+00  7.59869910E+00 -1.51973982E+01
  7.59869910E+00  7.59869910E+00 -1.51973982E+01  7.59869910E+00  7.59869910E+00
 -1.51973982E+01  7.59869910E+00  7.59869910E+00 -1.51973982E+01  7.59869910E+00
  7.59869910E+00 -1.51973982E+01  7.59869910E+00  7.59869910E+00 -1.51973982E+01
  7.59869910E+00  7.59869910E+00 -1.51973982E+01  7.59869910E+00  7.59869910E+00
 -1.51973982E+01  7.59869910E+00  7.59869910E+00 -1.51973982E+01  7.59869910E+00
  7.59869910E+00 -1.51973982E+01  7.59869910E+00  7.59869910E+00 -1.51973982E+01
  7.59869910E+00  7.59869910E+00 -1.51973982E+01  7.59869910E+00  7.59869910E+00
 -1.51973982E+01  7.59869910E+00  7.59869910E+00 -1.51973982E+01  7.59869910E+00
  7.59869910E+00 -1.51973982E+01  7.59869910E+00  7.59869910E+00 -1.51973982E+01
  7.59869910E+00  7.59869910E+00 -1.51973982E+01  7.59869910E+00  7.59869910E+00
 -1.51973982E+01  7.59869910E+00  7.59869910E+00 -1.51973982E+01  7.59869910E+00
  7.59869910E+00 -1.51973982E+01  7.59869910E+00  7.59869910E+00 -1.51973982E+01
  7.59869910E+00  7.59869910E+00 -1.51973982E+01  7.59869910E+00  7.59869910E+00
 -1.51973982E+01  7.59869910E+00  7.59869910E+00 -1.51973982E+01  7.59869910E+00
  7.59869910E+00 -1.51973982E+01  7.59869910E+00  7.59869910E+00 -1.51973982E+01
  7.59869910E+00  7.59869910E+00 -1.51973982E+01  7.59869910E+00  7.59869910E+00
 -1.51973982E+01  7.59869910E+00  7.59869910E+00 -1.51973982E+01  7.59869910E+00
  7.59869910E+00 -1.51973982E+01  7.59869910E+00  7.59869910E+00 -1.51973982E+01
  7.59869910E+00  7.59869910E+00 -1.51973982E+01  7.59869910E+00  7.59869910E+00
 -1.51973982E+01  7.59869910E+00  7.59869910E+00 -1.51973982E+01  7.59869910E+00
  7.59869910E+00 -1.51973982E+01  7.59869910E+00  7.59869910E+00 -1.51973982E+01
  7.59869910E+00  7.59869910E+00 -1.51973982E+01  7.59869910E+00  7.59869910E+00
 -1.51973982E+01  7.59869910E+00  7.59869910E+00 -1.51973982E+01  7.59869910E+00
  7.59869910E+00 -1.51973982E+01  7.59869910E+00  7.59869910E+00 -1.51973982E+01
  7.59869910E+00  7.59869910E+00 -1.51973982E+01  7.59869910E+00  7.59869910E+00
 -1.51973982E+01  7.59869910E+00  7.59869910E+00 -1.51973982E+01  7.59869910E+00
  7.59869910E+00 -1.51973982E+01  7.59869910E+00  7.59869910E+00 -1.51973982E+01
  7.59869910E+00  7.59869910E+00 -1.51973982E+01  7.59869910E+00  7.59869910E+00
 -1.51973982E+01  7.59869910E+00  7.59869910E+00 -1.51973982E+01  7.59869910E+00
  7.59869910E+00 -1.51973982E+01  7.59869910E+00  7.59869910E+00 -1.51973982E+01
  7.59869910E+00  7.59869910E+00 -1.51973982E+01  7.59869910E+00  7.59869910E+00
 -1.51973982E+01  7.59869910E+00  7.59869910E+00 -1.51973982E+01  7.59869910E+00
  7.59869910E+00 -1.51973982E+01  7.59869910E+00  7.59869910E+00 -1.51973982E+01
  7.59869910E+00  7.59869910E+00 -1.51973982E+01  7.59869910E+00  7.59869910E+00
 -1.51973982E+01  7.59869910E+00  7.59869910E+00 -1.51973982E+01  7.59869910E+00
  7.59869910E+00 -1.51973982E+01  7.59869910E+00  7.59869910E+00 -1.51973982E+01
  7.59869910E+00  7.59869910E+00 -1.51973982E+01  7.59869910E+00  7.59869910E+00
 -1.51973982E+01  7.59869910E+00  7.59869910E+00 -1.51973982E+01  7.59869910E+00
  7.59869910E+00 -1.51973982E+01  7.59869910E+00  7.59869910E+00 -1.51973982E+01
  7.59869910E+00  7.59869910E+00 -1.51973982E+01  7.59869910E+00  7.59869910E+00
 -1.51973982E+01  7.59869910E+00  7.59869910E+00 -1.51973982E+01  7.59869910E+00
  7.59869910E+00 -1.51973982E+01  7.59869910E+00  7.59869910E+00 -1.51973982E+01
  7.59869910E+00  7.59869910E+00 -1.51973982E+01  7.59869910E+00  7.59869910E+00
 -1.51973982E+01  7.59869910E+00  7.59869910E+00 -1.51973982E+01  7.59869910E+00
  7.59869910E+00 -1.51973982E+01  7.59869910E+00  7.59869910E+00 -1.51973982E+01
  7.59869910E+00  7.59869910E+00 -1.51973982E+01  7.59869910E+00  7.59869910E+00
 -1.51973982E+01  7.59869910E+00  7.59869910E+00 -1.51973982E+01  7.59869910E+00
  7.59869910E+00 -1.51973982E+01  7.59869910E+00  7.59869910E+00 -1.51973982E+01
  7.59869910E+00  7.59869910E+00 -1.51973982E+01  7.59869910E+00  7.59869910E+00
 -1.51973982E+01  7.59869910E+00  7.59869910E+00 -1.51973982E+01  7.59869910E+00
  7.59869910E+00 -1.51973982E+01  7.59869910E+00  7.59869910E+00 -1.51973982E+01
  7.59869910E+00  7.59869910E+00 -1.51973982E+01  7.59869910E+00  7.59869910E+00
 -1.51973982E+01  7.59869910E+00  7.59869910E+00 -1.51973982E+01  7.59869910E+00
  7.59869910E+00 -1.51973982E+01  7.59869910E+00  7.59869910E+00 -1.51973982E+01
  7.59869910E+00  7.59869910E+00 -1.51973982E+01  7.59869910E+00  7.59869910E+00
 -1.51973982E+01  7.59869910E+00  7.59869910E+00 -1.51973982E+01  7.59869910E+00
  7.59869910E+00 -1.51973982E+01  7.59869910E+00  7.59869910E+00 -1.51973982E+01
  7.59869910E+00  7.59869910E+00 -1.51973982E+01  7.59869910E+00  7.59869910E+00
 -1.51973982E+01  7.59869910E+00  7.59869910E+00 -1.51973982E+01  7.59869910E+00
  7.59869910E+00 -1.51973982E+01  7.59869910E+00  7.59869910E+00 -1.51973982E+01
  7.59869910E+00  7.59869910E+00 -1.51973982E+01  7.59869910E+00  7.59869910E+00
 -1.51973982E+01  7.59869910E+00  7.59869910E+00 -1.51973982E+01  7.59869910E+00
  7.59869910E+00 -1.51973982E+01  7.59869910E+00  7.59869910E+00 -1.51973982E+01
  7.59869910E+00  7.59869910E+00 -1.51973982E+01  7.59869910E+00  7.59869910E+00
 -1.51973982E+01  7.59869910E+00  7.59869910E+00 -1.51973982E+01  7.59869910E+00
  7.59869910E+00 -1.51973982E+01  7.59869910E+00  7.59869910E+00 -1.51973982E+01
  7.59869910E+00  7.59869910E+00 -1.51973982E+01  7.59869910E+00  7.59869910E+00
 -1.51973982E+01  7.59869910E+00  7.59869910E+00 -1.51973982E+01  7.59869910E+00
  7.59869910E+00 -1.51973982E+01  7.59869910E+00  7.59869910E+00 -1.51973982E+01
  7.59869910E+00  7.59869910E+00 -1.51973982E+01  7.59869910E+00  7.59869910E+00
 -1.51973982E+01  7.59869910E+00  7.59869910E+00 -1.51973982E+01  7.59869910E+00
  7.59869910E+00 -1.51973982E+01  7.59869910E+00  7.59869910E+00 -1.51973982E+01
  7.59869910E+00  7.59869910E+00 -1.51973982E+01  7.59869910E+00  7.59869910E+00
 -1.51973982E+01  7.59869910E+00  7.59869910E+00 -1.51973982E+01  7.59869910E+00
  7.59869910E+00 -1.51973982E+01  7.59869910E+00  7.59869910E+00 -1.51973982E+01
  7.59869910E+00  7.59869910E+00 -1.51973982E+01  7.59869910E+00  7.59869910E+00
 -1.51973982E+01  7.59869910E+00  7.59869910E+00 -1.51973982E+01  7.59869910E+00
  7.59869910E+00 -1.51973982E+01  7.59869910E+00  7.59869910E+00 -1.51973982E+01
  7.59869910E+00  7.59869910E+00 -1.51973982E+01  7.59869910E+00  7.59869910E+00
 -1.51973982E+01  7.59869910E+00  7.59869910E+00 -1.51973982E+01  7.59869910E+00
  7.59869910E+00 -1.51973982E+01  7.59869910E+00  7.59869910E+00 -1.51973982E+01
  7.59869910E+00  7.59869910E+00 -1.51973982E+01  7.59869910E+00  7.59869910E+00
 -1.51973982E+01  7.59869910E+00  7.59869910E+00 -1.51973982E+01  7.59869910E+00
  7.59869910E+00 -1.51973982E+01  7.59869910E+00  7.59869910E+00 -1.51973982E+01
  7.59869910E+00  7.59869910E+00 -1.51973982E+01  7.59869910E+00  7.59869910E+00
 -1.51973982E+01  7.59869910E+00  7.59869910E+00 -1.51973982E+01  7.59869910E+00
  7.59869910E+00 -1.51973982E+01  7.59869910E+00  7.59869910E+00 -1.51973982E+01
  7.59869910E+00  7.59869910E+00 -1.51973982E+01  7.59869910E+00  7.59869910E+00
 -1.51973982E+01  7.59869910E+00  7.59869910E+00 -1.51973982E+01  7.59869910E+00
  7.59869910E+00 -1.51973982E+01  7.59869910E+00  7.59869910E+00 -1.51973982E+01
  7.59869910E+00  7.59869910E+00 -1.51973982E+01  7.59869910E+00  7.59869910E+00
 -1.51973982E+01  7.59869910E+00  7.59869910E+00 -1.51973982E+01  7.59869910E+00
  7.59869910E+00 -1.51973982E+01  7.59869910E+00  7.59869910E+00 -1.51973982E+01
  7.59869910E+00  7.59869910E+00 -1.51973982E+01  7.59869910E+00  7.59869910E+00
 -1.51973982E+01  7.59869910E+00  7.59869910E+00 -1.51973982E+01  7.59869910E+00
  7.59869910E+00 -1.51973982E+01  7.59869910E+00  7.59869910E+00 -1.51973982E+01
  7.59869910E+00  7.59869910E+00 -1.51973982E+01  7.59869910E+00  7.59869910E+00
 -1.51973982E+01  7.59869910E+00  7.59869910E+00 -1.51973982E+01  7.59869910E+00
  7.59869910E+00 -1.51973982E+01  7.59869910E+00  7.59869910E+00 -1.51973982E+01
  7.59869910E+00  7.59869910E+00 -1.51973982E+01  7.59869910E+00  7.59869910E+00
 -1.51973982E+01  7.59869910E+00  7.59869910E+00 -1.51973982E+01  7.59869910E+00
  7.59869910E+00 -1.51973982E+01  7.59869910E+00  7.59869910E+00 -1.51973982E+01
  7.59869910E+00  7.59869910E+00 -1.51973982E+01  7.59869910E+00  7.59869910E+00
 -1.51973982E+01  7.59869910E+00  7.59869910E+00 -1.51973982E+01  7.59869910E+00
  7.59869910E+00 -1.51973982E+01  7.59869910E+00  7.59869910E+00 -1.51973982E+01
  7.59869910E+00  7.59869910E+00 -1.51973982E+01  7.59869910E+00  7.59869910E+00
 -1.51973982E+01  7.59869910E+00  7.59869910E+00 -1.51973982E+01  7.59869910E+00
  7.59869910E+00 -1.51973982E+01  7.59869910E+00  7.59869910E+00 -1.51973982E+01
  7.59869910E+00  7.59869910E+00 -1.51973982E+01  7.59869910E+00  7.59869910E+00
 -1.51973982E+01  7.59869910E+00  7.59869910E+00 -1.51973982E+01  7.59869910E+00
  7.59869910E+00 -1.51973982E+01  7.59869910E+00  7.59869910E+00 -1.51973982E+01
  7.59869910E+00  7.59869910E+00 -1.51973982E+01  7.59869910E+00  7.59869910E+00
 -1.51973982E+01  7.59869910E+00  7.59869910E+00 -1.51973982E+01  7.59869910E+00
  7.59869910E+00 -1.51973982E+01  7.59869910E+00  7.59869910E+00 -1.51973982E+01
  7.59869910E+00  7.59869910E+00 -1.51973982E+01  7.59869910E+00  7.59869910E+00
 -1.51973982E+01  7.59869910E+00  7.59869910E+00 -1.51973982E+01  7.59869910E+00
  7.59869910E+00 -1.51973982E+01  7.59869910E+00  7.59869910E+00 -1.51973982E+01
  7.59869910E+00  7.59869910E+00 -1.51973982E+01  7.59869910E+00  7.59869910E+00
 -1.51973982E+01  7.59869910E+00  7.59869910E+00 -1.51973982E+01  7.59869910E+00
  7.59869910E+00 -1.51973982E+01  7.59869910E+00  7.59869910E+00 -1.51973982E+01
  7.59869910E+00  7.59869910E+00 -1.51973982E+01  7.59869910E+00  7.59869910E+00
 -1.51973982E+01  7.59869910E+00  7.59869910E+00 -1.51973982E+01  7.59869910E+00
  7.59869910E+00 -1.51973982E+01  7.59869910E+00  7.59869910E+00 -1.51973982E+01
  7.59869910E+00  7.59869910E+00 -1.51973982E+01  7.59869910E+00  7.59869910E+00
 -1.51973982E+01  7.59869910E+00  7.59869910E+00 -1.51973982E+01  7.59869910E+00
  7.59869910E+00 -1.51973982E+01  7.59869910E+00  7.59869910E+00 -1.51973982E+01
  7.59869910E+00  7.59869910E+00 -1.51973982E+01  7.59869910E+00  7.59869910E+00
 -1.51973982E+01  7.59869910E+00  7.59869910E+00 -1.51973982E+01  7.59869910E+00
  7.59869910E+00 -1.51973982E+01  7.59869910E+00  7.59869910E+00 -1.51973982E+01
  7.59869910E+00  7.59869910E+00 -1.51973982E+01  7.59869910E+00  7.59869910E+00
 -1.51973982E+01  7.59869910E+00  7.59869910E+00 -1.51973982E+01  7.59869910E+00
  7.59869910E+00 -1.51973982E+01  7.59869910E+00  7.59869910E+00 -1.51973982E+01
  7.59869910E+00  7.59869910E+00 -1.51973982E+01  7.59869910E+00  7.59869910E+00
 -1.51973982E+01  7.59869910E+00  7.59869910E+00 -1.51973982E+01  7.59869910E+00
  7.59869910E+00 -1.51973982E+01  7.59869910E+00  7.59869910E+00 -1.51973982E+01
  7.59869910E+00  7.59869910E+00 -1.51973982E+01  7.59869910E+00  7.59869910E+00
 -1.51973982E+01  7.59869910E+00  7.59869910E+00 -1.51973982E+01  7.59869910E+00
  7.59869910E+00 -1.51973982E+01  7.59869910E+00  7.59869910E+00 -1.51973982E+01
  7.59869910E+00  7.59869910E+00 -1.51973982E+01  7.59869910E+00  7.59869910E+00
 -1.51973982E+01  7.59869910E+00  7.59869910E+00 -1.51973982E+01  7.59869910E+00
  7.59869910E+00 -1.51973982E+01  7.59869910E+00  7.59869910E+00 -1.51973982E+01
  7.59869910E+00  7.59869910E+00 -1.51973982E+01  7.59869910E+00  7.59869910E+00
 -1.51973982E+01  7.59869910E+00  7.59869910E+00 -1.51973982E+01  7.59869910E+00
  7.59869910E+00 -1.51973982E+01  7.59869910E+00  7.59869910E+00 -1.51973982E+01
  7.59869910E+00  7.59869910E+00 -1.51973982E+01  7.59869910E+00  7.59869910E+00
 -1.51973982E+01  7.59869910E+00  7.59869910E+00 -1.51973982E+01  7.59869910E+00
  7.59869910E+00 -1.51973982E+01  7.59869910E+00  7.59869910E+00 -1.51973982E+01
  7.59869910E+00  7.59869910E+00 -1.51973982E+01  7.59869910E+00  7.59869910E+00
 -1.51973982E+01  7.59869910E+00  7.59869910E+00 -1.51973982E+01  7.59869910E+00
  7.59869910E+00 -1.51973982E+01  7.59869910E+00  7.59869910E+00 -1.51973982E+01
  7.59869910E+00  7.59869910E+00 -1.51973982E+01  7.59869910E+00  7.59869910E+00
 -1.51973982E+01  7.59869910E+00  7.59869910E+00 -1.51973982E+01  7.59869910E+00
  7.59869910E+00 -1.51973982E+01  7.59869910E+00  7.59869910E+00 -1.51973982E+01
  7.59869910E+00  7.59869910E+00 -1.51973982E+01  7.59869910E+00  7.59869910E+00
 -1.51973982E+01  7.59869910E+00  7.59869910E+00 -1.51973982E+01  7.59869910E+00
  7.59869910E+00 -1.51973982E+01  7.59869910E+00  7.59869910E+00 -1.51973982E+01
  7.59869910E+00  7.59869910E+00 -1.51973982E+01  7.59869910E+00  7.59869910E+00
 -1.51973982E+01  7.59869910E+00  7.59869910E+00 -1.51973982E+01  7.59869910E+00
  7.59869910E+00 -1.51973982E+01  7.59869910E+00  7.59869910E+00 -1.51973982E+01
  7.59869910E+00  7.59869910E+00 -1.51973982E+01  7.59869910E+00  7.59869910E+00
 -1.51973982E+01  7.59869910E+00  7.59869910E+00 -1.51973982E+01  7.59869910E+00
  7.59869910E+00 -1.51973982E+01  7.59869910E+00  7.59869910E+00 -1.51973982E+01
  7.59869910E+00  7.59869910E+00 -1.51973982E+01  7.59869910E+00  7.59869910E+00
 -1.51973982E+01  7.59869910E+00  7.59869910E+00 -1.51973982E+01  7.59869910E+00
  7.59869910E+00 -1.51973982E+01  7.59869910E+00  7.59869910E+00 -1.51973982E+01
  7.59869910E+00  7.59869910E+00 -1.51973982E+01  7.59869910E+00  7.59869910E+00
 -1.51973982E+01  7.59869910E+00  7.59869910E+00 -1.51973982E+01  7.59869910E+00
  7.59869910E+00 -1.51973982E+01  7.59869910E+00  7.59869910E+00 -1.51973982E+01
  7.59869910E+00  7.59869910E+00 -1.51973982E+01  7.59869910E+00  7.59869910E+00
 -1.51973982E+01  7.59869910E+00  7.59869910E+00 -1.51973982E+01  7.59869910E+00
  7.59869910E+00 -1.51973982E+01  7.59869910E+00  7.59869910E+00 -1.51973982E+01
  7.59869910E+00  7.59869910E+00 -1.51973982E+01  7.59869910E+00  7.59869910E+00
 -1.51973982E+01  7.59869910E+00  7.59869910E+00 -1.51973982E+01  7.59869910E+00
  7.59869910E+00 -1.51973982E+01  7.59869910E+00  7.59869910E+00 -1.51973982E+01
  7.59869910E+00  7.59869910E+00 -1.51973982E+01  7.59869910E+00  7.59869910E+00
 -1.51973982E+01  7.59869910E+00  7.59869910E+00 -1.51973982E+01  7.59869910E+00
  7.59869910E+00 -1.51973982E+01  7.59869910E+00  7.59869910E+00 -1.51973982E+01
  7.59869910E+00  7.59869910E+00 -1.51973982E+01  7.59869910E+00  7.59869910E+00
 -1.51973982E+01  7.59869910E+00  7.59869910E+00 -1.51973982E+01  7.59869910E+00
  7.59869910E+00 -1.51973982E+01  7.59869910E+00  7.59869910E+00 -1.51973982E+01
  7.59869910E+00  7.59869910E+00 -1.51973982E+01  7.59869910E+00  7.59869910E+00
 -1.51973982E+01  7.59869910E+00  7.59869910E+00 -1.51973982E+01  7.59869910E+00
  7.59869910E+00 -1.51973982E+01  7.59869910E+00  7.59869910E+00 -1.51973982E+01
  7.59869910E+00  7.59869910E+00 -1.51973982E+01  7.59869910E+00  7.59869910E+00
 -1.51973982E+01  7.59869910E+00  7.59869910E+00 -1.51973982E+01  7.59869910E+00
  7.59869910E+00 -1.51973982E+01  7.59869910E+00  7.59869910E+00 -1.51973982E+01
  7.59869910E+00  7.59869910E+00 -1.51973982E+01  7.59869910E+00  7.59869910E+00
 -1.51973982E+01  7.59869910E+00  7.59869910E+00 -1.51973982E+01  7.59869910E+00
  7.59869910E+00 -1.51973982E+01  7.59869910E+00  7.59869910E+00 -1.51973982E+01
  7.59869910E+00  7.59869910E+00 -1.51973982E+01  7.59869910E+00  7.59869910E+00
 -1.51973982E+01  7.59869910E+00  7.59869910E+00 -1.51973982E+01  7.59869910E+00
  7.59869910E+00 -1.51973982E+01  7.59869910E+00  7.59869910E+00 -1.51973982E+01
  7.59869910E+00  7.59869910E+00 -1.51973982E+01  7.59869910E+00  7.59869910E+00
 -1.51973982E+01  7.59869910E+00  7.59869910E+00 -1.51973982E+01  7.59869910E+00
  7.59869910E+00 -1.51973982E+01  7.59869910E+00  7.59869910E+00 -1.51973982E+01
  7.59869910E+00  7.59869910E+00 -1.51973982E+01  7.59869910E+00  7.59869910E+00
 -1.51973982E+01  7.59869910E+00  7.59869910E+00 -1.51973982E+01  7.59869910E+00
  7.59869910E+00 -1.51973982E+01  7.59869910E+00  7.59869910E+00 -1.51973982E+01
  7.59869910E+00  7.59869910E+00 -1.51973982E+01  7.59869910E+00  7.59869910E+00
 -1.51973982E+01  7.59869910E+00  7.59869910E+00 -1.51973982E+01  7.59869910E+00
  7.59869910E+00 -1.51973982E+01  7.59869910E+00  7.59869910E+00 -1.51973982E+01
  7.59869910E+00  7.59869910E+00 -1.51973982E+01  7.59869910E+00  7.59869910E+00
 -1.51973982E+01  7.59869910E+00  7.59869910E+00 -1.51973982E+01  7.59869910E+00
  7.59869910E+00 -1.51973982E+01  7.59869910E+00  7.59869910E+00 -1.51973982E+01
  7.59869910E+00  7.59869910E+00 -1.51973982E+01  7.59869910E+00  7.59869910E+00
 -1.51973982E+01  7.59869910E+00  7.59869910E+00 -1.51973982E+01  7.59869910E+00
  7.59869910E+00 -1.51973982E+01  7.59869910E+00  7.59869910E+00 -1.51973982E+01
  7.59869910E+00  7.59869910E+00 -1.51973982E+01  7.59869910E+00  7.59869910E+00
 -1.51973982E+01  7.59869910E+00  7.59869910E+00 -1.51973982E+01  7.59869910E+00
  7.59869910E+00 -1.51973982E+01  7.59869910E+00  7.59869910E+00 -1.51973982E+01
  7.59869910E+00  7.59869910E+00 -1.51973982E+01  7.59869910E+00  7.59869910E+00
 -1.51973982E+01  7.59869910E+00  7.59869910E+00 -1.51973982E+01  7.59869910E+00
  7.59869910E+00 -1.51973982E+01  7.59869910E+00  7.59869910E+00 -1.51973982E+01
  7.59869910E+00  7.59869910E+00 -1.51973982E+01  7.59869910E+00  7.59869910E+00
 -1.51973982E+01  7.59869910E+00  7.59869910E+00 -1.51973982E+01  7.59869910E+00
  7.59869910E+00 -1.51973982E+01  7.59869910E+00  7.59869910E+00 -1.51973982E+01
  7.59869910E+00  7.59869910E+00 -1.51973982E+01  7.59869910E+00  7.59869910E+00
 -1.51973982E+01  7.59869910E+00  7.59869910E+00 -1.51973982E+01  7.59869910E+00
  7.59869910E+00 -1.51973982E+01  7.59869910E+00  7.59869910E+00 -1.51973982E+01
  7.59869910E+00  7.59869910E+00 -1.51973982E+01  7.59869910E+00  7.59869910E+00
 -1.51973982E+01  7.59869910E+00  7.59869910E+00 -1.51973982E+01  7.59869910E+00
  7.59869910E+00 -1.51973982E+01  7.59869910E+00  7.59869910E+00 -1.51973982E+01
  7.59869910E+00  7.59869910E+00 -1.51973982E+01  7.59869910E+00  7.59869910E+00
 -1.51973982E+01  7.59869910E+00  7.59869910E+00 -1.51973982E+01  7.59869910E+00
  7.59869910E+00 -1.51973982E+01  7.59869910E+00  7.59869910E+00 -1.51973982E+01
  7.59869910E+00  7.59869910E+00 -1.51973982E+01  7.59869910E+00  7.59869910E+00
 -1.51973982E+01  7.59869910E+00  7.59869910E+00 -1.51973982E+01  7.59869910E+00
  7.59869910E+00 -1.51973982E+01  7.59869910E+00  7.59869910E+00 -1.51973982E+01
  7.59869910E+00  7.59869910E+00 -1.51973982E+01  7.59869910E+00  7.59869910E+00
 -1.51973982E+01  7.59869910E+00  7.59869910E+00 -1.51973982E+01  7.59869910E+00
  7.59869910E+00 -1.51973982E+01  7.59869910E+00  7.59869910E+00 -1.51973982E+01
  7.59869910E+00  7.59869910E+00 -1.51973982E+01  7.59869910E+00  7.59869910E+00
 -1.51973982E+01  7.59869910E+00  7.59869910E+00 -1.51973982E+01  7.59869910E+00
  7.59869910E+00 -1.51973982E+01  7.59869910E+00  7.59869910E+00 -1.51973982E+01
  7.59869910E+00  7.59869910E+00 -1.51973982E+01  7.59869910E+00  7.59869910E+00
 -1.51973982E+01  7.59869910E+00  7.59869910E+00 -1.51973982E+01  7.59869910E+00
  7.59869910E+00 -1.51973982E+01  7.59869910E+00  7.59869910E+00 -1.51973982E+01
  7.59869910E+00  7.59869910E+00 -1.51973982E+01  7.59869910E+00  7.59869910E+00
 -1.51973982E+01  7.59869910E+00  7.59869910E+00 -1.51973982E+01  7.59869910E+00
  7.59869910E+00 -1.51973982E+01  7.59869910E+00  7.59869910E+00 -1.51973982E+01
  7.59869910E+00  7.59869910E+00 -1.51973982E+01  7.59869910E+00  7.59869910E+00
 -1.51973982E+01  7.59869910E+00  7.59869910E+00 -1.51973982E+01  7.59869910E+00
  7.59869910E+00 -1.51973982E+01  7.59869910E+00  7.59869910E+00 -1.51973982E+01
  7.59869910E+00  7.59869910E+00 -1.51973982E+01  7.59869910E+00  7.59869910E+00
 -1.51973982E+01  7.59869910E+00  7.59869910E+00 -1.51973982E+01  7.59869910E+00
  7.59869910E+00 -1.51973982E+01  7.59869910E+00  7.59869910E+00 -1.51973982E+01
  7.59869910E+00  7.59869910E+00 -1.51973982E+01  7.59869910E+00  7.59869910E+00
 -1.51973982E+01  7.59869910E+00  7.59869910E+00 -1.51973982E+01  7.59869910E+00
  7.59869910E+00 -1.51973982E+01  7.59869910E+00  7.59869910E+00 -1.51973982E+01
  7.59869910E+00  7.59869910E+00 -1.51973982E+01  7.59869910E+00  7.59869910E+00
 -1.51973982E+01  7.59869910E+00  7.59869910E+00 -1.51973982E+01  7.59869910E+00
  7.59869910E+00 -1.51973982E+01  7.59869910E+00  7.59869910E+00 -1.51973982E+01
  7.59869910E+00  7.59869910E+00 -1.51973982E+01  7.59869910E+00  7.59869910E+00
 -1.51973982E+01  7.59869910E+00  7.59869910E+00 -1.51973982E+01  7.59869910E+00
  7.59869910E+00 -1.51973982E+01  7.59869910E+00  7.59869910E+00 -1.51973982E+01
  7.59869910E+00  7.59869910E+00 -1.51973982E+01  7.59869910E+00  7.59869910E+00
 -1.51973982E+01  7.59869910E+00  7.59869910E+00 -1.51973982E+01  7.59869910E+00
  7.59869910E+00 -1.51973982E+01  7.59869910E+00  7.59869910E+00 -1.51973982E+01
  7.59869910E+00  7.59869910E+00 -1.51973982E+01  7.59869910E+00  7.59869910E+00
 -1.51973982E+01  7.59869910E+00  7.59869910E+00 -1.51973982E+01  7.59869910E+00
  7.59869910E+00 -1.51973982E+01  7.59869910E+00  7.59869910E+00 -1.51973982E+01
  7.59869910E+00  7.59869910E+00 -1.51973982E+01  7.59869910E+00  7.59869910E+00
 -1.51973982E+01  7.59869910E+00  7.59869910E+00 -1.51973982E+01  7.59869910E+00
  7.59869910E+00 -1.51973982E+01  7.59869910E+00  7.59869910E+00 -1.51973982E+01
  7.59869910E+00  7.59869910E+00 -1.51973982E+01  7.59869910E+00  7.59869910E+00
 -1.51973982E+01  7.59869910E+00  7.59869910E+00 -1.51973982E+01  7.59869910E+00
  7.59869910E+00 -1.51973982E+01  7.59869910E+00  7.59869910E+00 -1.51973982E+01
  7.59869910E+00  7.59869910E+00 -1.51973982E+01  7.59869910E+00  7.59869910E+00
 -1.51973982E+01  7.59869910E+00  7.59869910E+00 -1.51973982E+01  7.59869910E+00
  7.59869910E+00 -1.51973982E+01  7.59869910E+00  7.59869910E+00 -1.51973982E+01
  7.59869910E+00  7.59869910E+00 -1.51973982E+01  7.59869910E+00  7.59869910E+00
 -1.51973982E+01  7.59869910E+00  7.59869910E+00 -1.51973982E+01  7.59869910E+00
  7.59869910E+00 -1.51973982E+01  7.59869910E+00  7.59869910E+00 -1.51973982E+01
  7.59869910E+00  7.59869910E+00 -1.51973982E+01  7.59869910E+00  7.59869910E+00
 -1.51973982E+01  7.59869910E+00  7.59869910E+00 -1.51973982E+01  7.59869910E+00
  7.59869910E+00 -1.51973982E+01  7.59869910E+00  7.59869910E+00 -1.51973982E+01
  7.59869910E+00  7.59869910E+00 -1.51973982E+01  7.59869910E+00  7.59869910E+00
 -1.51973982E+01  7.59869910E+00  7.59869910E+00 -1.51973982E+01  7.59869910E+00
  7.59869910E+00 -1.51973982E+01  7.59869910E+00  7.59869910E+00 -1.51973982E+01
  7.59869910E+00  7.59869910E+00 -1.51973982E+01  7.59869910E+00  7.59869910E+00
 -1.51973982E+01  7.59869910E+00  7.59869910E+00 -1.51973982E+01  7.59869910E+00
  7.59869910E+00 -1.51973982E+01  7.59869910E+00  7.59869910E+00 -1.51973982E+01
  7.59869910E+00  7.59869910E+00 -1.51973982E+01  7.59869910E+00  7.59869910E+00
 -1.51973982E+01  7.59869910E+00  7.59869910E+00 -1.51973982E+01  7.59869910E+00
  7.59869910E+00 -1.51973982E+01  7.59869910E+00  7.59869910E+00 -1.51973982E+01
  7.59869910E+00  7.59869910E+00 -1.51973982E+01  7.59869910E+00  7.59869910E+00
 -1.51973982E+01  7.59869910E+00  7.59869910E+00 -1.51973982E+01  7.59869910E+00
  7.59869910E+00 -1.51973982E+01  7.59869910E+00  7.59869910E+00 -1.51973982E+01
  7.59869910E+00  7.59869910E+00 -1.51973982E+01  7.59869910E+00  7.59869910E+00
 -1.51973982E+01  7.59869910E+00  7.59869910E+00 -1.51973982E+01  7.59869910E+00
  7.59869910E+00 -1.51973982E+01  7.59869910E+00  7.59869910E+00 -1.51973982E+01
  7.59869910E+00  7.59869910E+00 -1.51973982E+01  7.59869910E+00  7.59869910E+00
 -1.51973982E+01  7.59869910E+00  7.59869910E+00 -1.51973982E+01  7.59869910E+00
  7.59869910E+00 -1.51973982E+01  7.59869910E+00  7.59869910E+00 -1.51973982E+01
  7.59869910E+00  7.59869910E+00 -1.51973982E+01  7.59869910E+00  7.59869910E+00
 -1.51973982E+01  7.59869910E+00  7.59869910E+00 -1.51973982E+01  7.59869910E+00
  7.59869910E+00 -1.51973982E+01  7.59869910E+00  7.59869910E+00 -1.51973982E+01
  7.59869910E+00  7.59869910E+00 -1.51973982E+01  7.59869910E+00  7.59869910E+00
 -1.51973982E+01  7.59869910E+00  7.59869910E+00 -1.51973982E+01  7.59869910E+00
  7.59869910E+00 -1.51973982E+01  7.59869910E+00  7.59869910E+00 -1.51973982E+01
  7.59869910E+00  7.59869910E+00 -1.51973982E+01  7.59869910E+00  7.59869910E+00
 -1.51973982E+01  7.59869910E+00  7.59869910E+00 -1.51973982E+01  7.59869910E+00
  7.59869910E+00 -1.51973982E+01  7.59869910E+00  7.59869910E+00 -1.51973982E+01
  7.59869910E+00  7.59869910E+00 -1.51973982E+01  7.59869910E+00  7.59869910E+00
 -1.51973982E+01  7.59869910E+00  7.59869910E+00 -1.51973982E+01  7.59869910E+00
  7.59869910E+00 -1.51973982E+01  7.59869910E+00  7.59869910E+00 -1.51973982E+01
  7.59869910E+00  7.59869910E+00 -1.51973982E+01  7.59869910E+00  7.59869910E+00
 -1.51973982E+01  7.59869910E+00  7.59869910E+00 -1.51973982E+01  7.59869910E+00
  7.59869910E+00 -1.51973982E+01  7.59869910E+00  7.59869910E+00 -1.51973982E+01
  7.59869910E+00  7.59869910E+00 -1.51973982E+01  7.59869910E+00  7.59869910E+00
 -1.51973982E+01  7.59869910E+00  7.59869910E+00 -1.51973982E+01  7.59869910E+00
  7.59869910E+00 -1.51973982E+01  7.59869910E+00  7.59869910E+00 -1.51973982E+01
  7.59869910E+00  7.59869910E+00 -1.51973982E+01  7.59869910E+00  7.59869910E+00
 -1.51973982E+01  7.59869910E+00  7.59869910E+00 -1.51973982E+01  7.59869910E+00
  7.59869910E+00 -1.51973982E+01  7.59869910E+00  7.59869910E+00 -1.51973982E+01
  7.59869910E+00  7.59869910E+00 -1.51973982E+01  7.59869910E+00  7.59869910E+00
 -1.51973982E+01  7.59869910E+00  7.59869910E+00 -1.51973982E+01  7.59869910E+00
  7.59869910E+00 -1.51973982E+01  7.59869910E+00  7.59869910E+00 -1.51973982E+01
  7.59869910E+00  7.59869910E+00 -1.51973982E+01  7.59869910E+00  7.59869910E+00
 -1.51973982E+01  7.59869910E+00  7.59869910E+00 -1.51973982E+01  7.59869910E+00
  7.59869910E+00 -1.51973982E+01  7.59869910E+00  7.59869910E+00 -1.51973982E+01
  7.59869910E+00  7.59869910E+00 -1.51973982E+01  7.59869910E+00  7.59869910E+00
 -1.51973982E+01  7.59869910E+00  7.59869910E+00 -1.51973982E+01  7.59869910E+00
  7.59869910E+00 -1.51973982E+01  7.59869910E+00  7.59869910E+00 -1.51973982E+01
  7.59869910E+00  7.59869910E+00 -1.51973982E+01  7.59869910E+00  7.59869910E+00
 -1.51973982E+01  7.59869910E+00  7.59869910E+00 -1.51973982E+01  7.59869910E+00
  7.59869910E+00 -1.51973982E+01  7.59869910E+00  7.59869910E+00 -1.51973982E+01
  7.59869910E+00  7.59869910E+00 -1.51973982E+01  7.59869910E+00  7.59869910E+00
 -1.51973982E+01  7.59869910E+00  7.59869910E+00 -1.51973982E+01  7.59869910E+00
  7.59869910E+00 -1.51973982E+01  7.59869910E+00  7.59869910E+00 -1.51973982E+01
  7.59869910E+00  7.59869910E+00 -1.51973982E+01  7.59869910E+00  7.59869910E+00
 -1.51973982E+01  7.59869910E+00  7.59869910E+00 -1.51973982E+01  7.59869910E+00
  7.59869910E+00 -1.51973982E+01  7.59869910E+00  7.59869910E+00 -1.51973982E+01
  7.59869910E+00  7.59869910E+00 -1.51973982E+01  7.59869910E+00  7.59869910E+00
 -1.51973982E+01  7.59869910E+00  7.59869910E+00 -1.51973982E+01  7.59869910E+00
  7.59869910E+00 -1.51973982E+01  7.59869910E+00  7.59869910E+00 -1.51973982E+01
  7.59869910E+00  7.59869910E+00 -1.51973982E+01  7.59869910E+00  7.59869910E+00
 -1.51973982E+01  7.59869910E+00  7.59869910E+00 -1.51973982E+01  7.59869910E+00
  7.59869910E+00 -1.51973982E+01  7.59869910E+00  7.59869910E+00 -1.51973982E+01
  7.59869910E+00  7.59869910E+00 -1.51973982E+01  7.59869910E+00  7.59869910E+00
 -1.51973982E+01  7.59869910E+00  7.59869910E+00 -1.51973982E+01  7.59869910E+00
  7.59869910E+00 -1.51973982E+01  7.59869910E+00  7.59869910E+00 -1.51973982E+01
  7.59869910E+00  7.59869910E+00 -1.51973982E+01  7.59869910E+00  7.59869910E+00
 -1.51973982E+01  7.59869910E+00  7.59869910E+00 -1.51973982E+01  7.59869910E+00
  7.59869910E+00 -1.51973982E+01  7.59869910E+00  7.59869910E+00 -1.51973982E+01
  7.59869910E+00  7.59869910E+00 -1.51973982E+01  7.59869910E+00  7.59869910E+00
 -1.51973982E+01  7.59869910E+00  7.59869910E+00 -1.51973982E+01  7.59869910E+00
  7.59869910E+00 -1.51973982E+01  7.59869910E+00  7.59869910E+00 -1.51973982E+01
  7.59869910E+00  7.59869910E+00 -1.51973982E+01  7.59869910E+00  7.59869910E+00
 -1.51973982E+01  7.59869910E+00  7.59869910E+00 -1.51973982E+01  7.59869910E+00
  7.59869910E+00 -1.51973982E+01  7.59869910E+00  7.59869910E+00 -1.51973982E+01
  7.59869910E+00  7.59869910E+00 -1.51973982E+01  7.59869910E+00  7.59869910E+00
 -1.51973982E+01  7.59869910E+00  7.59869910E+00 -1.51973982E+01  7.59869910E+00
  7.59869910E+00 -1.51973982E+01  7.59869910E+00  7.59869910E+00 -1.51973982E+01
  7.59869910E+00  7.59869910E+00 -1.51973982E+01  7.59869910E+00  7.59869910E+00
 -1.51973982E+01  7.59869910E+00  7.59869910E+00 -1.51973982E+01  7.59869910E+00
  7.59869910E+00 -1.51973982E+01  7.59869910E+00  7.59869910E+00 -1.51973982E+01
  7.59869910E+00  7.59869910E+00 -1.51973982E+01  7.59869910E+00  7.59869910E+00
 -1.51973982E+01  7.59869910E+00  7.59869910E+00 -1.51973982E+01  7.59869910E+00
  7.59869910E+00 -1.51973982E+01  7.59869910E+00  7.59869910E+00 -1.51973982E+01
  7.59869910E+00  7.59869910E+00 -1.51973982E+01  7.59869910E+00  7.59869910E+00
 -1.51973982E+01  7.59869910E+00  7.59869910E+00 -1.51973982E+01  7.59869910E+00
  7.59869910E+00 -1.51973982E+01  7.59869910E+00  7.59869910E+00 -1.51973982E+01
  7.59869910E+00  7.59869910E+00 -1.51973982E+01  7.59869910E+00  7.59869910E+00
 -1.51973982E+01  7.59869910E+00  7.59869910E+00 -1.51973982E+01  7.59869910E+00
  7.59869910E+00 -1.51973982E+01  7.59869910E+00  7.59869910E+00 -1.51973982E+01
  7.59869910E+00  7.59869910E+00 -1.51973982E+01  7.59869910E+00  7.59869910E+00
 -1.51973982E+01  7.59869910E+00  7.59869910E+00 -1.51973982E+01  7.59869910E+00
  7.59869910E+00 -1.51973982E+01  7.59869910E+00  7.59869910E+00 -1.51973982E+01
  7.59869910E+00  7.59869910E+00 -1.51973982E+01  7.59869910E+00  7.59869910E+00
 -1.51973982E+01  7.59869910E+00  7.59869910E+00 -1.51973982E+01  7.59869910E+00
  7.59869910E+00 -1.51973982E+01  7.59869910E+00  7.59869910E+00 -1.51973982E+01
  7.59869910E+00  7.59869910E+00 -1.51973982E+01  7.59869910E+00  7.59869910E+00
 -1.51973982E+01  7.59869910E+00  7.59869910E+00 -1.51973982E+01  7.59869910E+00
  7.59869910E+00 -1.51973982E+01  7.59869910E+00  7.59869910E+00 -1.51973982E+01
  7.59869910E+00  7.59869910E+00 -1.51973982E+01  7.59869910E+00  7.59869910E+00
 -1.51973982E+01  7.59869910E+00  7.59869910E+00 -1.51973982E+01  7.59869910E+00
  7.59869910E+00 -1.51973982E+01  7.59869910E+00  7.59869910E+00 -1.51973982E+01
  7.59869910E+00  7.59869910E+00 -1.51973982E+01  7.59869910E+00  7.59869910E+00
 -1.51973982E+01  7.59869910E+00  7.59869910E+00 -1.51973982E+01  7.59869910E+00
  7.59869910E+00 -1.51973982E+01  7.59869910E+00  7.59869910E+00 -1.51973982E+01
  7.59869910E+00  7.59869910E+00 -1.51973982E+01  7.59869910E+00  7.59869910E+00
 -1.51973982E+01  7.59869910E+00  7.59869910E+00 -1.51973982E+01  7.59869910E+00
  7.59869910E+00 -1.51973982E+01  7.59869910E+00  7.59869910E+00 -1.51973982E+01
  7.59869910E+00  7.59869910E+00 -1.51973982E+01  7.59869910E+00  7.59869910E+00
 -1.51973982E+01  7.59869910E+00  7.59869910E+00 -1.51973982E+01  7.59869910E+00
  7.59869910E+00 -1.51973982E+01  7.59869910E+00  7.59869910E+00 -1.51973982E+01
  7.59869910E+00  7.59869910E+00 -1.51973982E+01  7.59869910E+00  7.59869910E+00
 -1.51973982E+01  7.59869910E+00  7.59869910E+00 -1.51973982E+01  7.59869910E+00
  7.59869910E+00 -1.51973982E+01  7.59869910E+00  7.59869910E+00 -1.51973982E+01
  7.59869910E+00  7.59869910E+00 -1.51973982E+01  7.59869910E+00  7.59869910E+00
 -1.51973982E+01  7.59869910E+00  7.59869910E+00 -1.51973982E+01  7.59869910E+00
  7.59869910E+00 -1.51973982E+01  7.59869910E+00  7.59869910E+00 -1.51973982E+01
  7.59869910E+00  7.59869910E+00 -1.51973982E+01  7.59869910E+00  7.59869910E+00
 -1.51973982E+01  7.59869910E+00  7.59869910E+00 -1.51973982E+01  7.59869910E+00
  7.59869910E+00 -1.51973982E+01  7.59869910E+00  7.59869910E+00 -1.51973982E+01
  7.59869910E+00  7.59869910E+00 -1.51973982E+01  7.59869910E+00  7.59869910E+00
 -1.51973982E+01  7.59869910E+00  7.59869910E+00 -1.51973982E+01  7.59869910E+00
  7.59869910E+00 -1.51973982E+01  7.59869910E+00  7.59869910E+00 -1.51973982E+01
  7.59869910E+00  7.59869910E+00 -1.51973982E+01  7.59869910E+00  7.59869910E+00
 -1.51973982E+01  7.59869910E+00  7.59869910E+00 -1.51973982E+01  7.59869910E+00
  7.59869910E+00 -1.51973982E+01  7.59869910E+00  7.59869910E+00 -1.51973982E+01
  7.59869910E+00  7.59869910E+00 -1.51973982E+01  7.59869910E+00  7.59869910E+00
 -1.51973982E+01  7.59869910E+00  7.59869910E+00 -1.51973982E+01  7.59869910E+00
  7.59869910E+00 -1.51973982E+01  7.59869910E+00  7.59869910E+00 -1.51973982E+01
  7.59869910E+00  7.59869910E+00 -1.51973982E+01  7.59869910E+00  7.59869910E+00
 -1.51973982E+01  7.59869910E+00  7.59869910E+00 -1.51973982E+01  7.59869910E+00
  7.59869910E+00 -1.51973982E+01  7.59869910E+00  7.59869910E+00 -1.51973982E+01
  7.59869910E+00  7.59869910E+00 -1.51973982E+01  7.59869910E+00  7.59869910E+00
 -1.51973982E+01  7.59869910E+00  7.59869910E+00 -1.51973982E+01  7.59869910E+00
  7.59869910E+00 -1.51973982E+01  7.59869910E+00  7.59869910E+00 -1.51973982E+01
  7.59869910E+00  7.59869910E+00 -1.51973982E+01  7.59869910E+00  7.59869910E+00
 -1.51973982E+01  7.59869910E+00  7.59869910E+00 -1.51973982E+01  7.59869910E+00
  7.59869910E+00 -1.51973982E+01  7.59869910E+00  7.59869910E+00 -1.51973982E+01
  7.59869910E+00  7.59869910E+00 -1.51973982E+01  7.59869910E+00  7.59869910E+00
 -1.51973982E+01  7.59869910E+00  7.59869910E+00 -1.51973982E+01  7.59869910E+00
  7.59869910E+00 -1.51973982E+01  7.59869910E+00  7.59869910E+00 -1.51973982E+01
  7.59869910E+00  7.59869910E+00 -1.51973982E+01  7.59869910E+00  7.59869910E+00
 -1.51973982E+01  7.59869910E+00  7.59869910E+00 -1.51973982E+01  7.59869910E+00
  7.59869910E+00 -1.51973982E+01  7.59869910E+00  7.59869910E+00 -1.51973982E+01
  7.59869910E+00  7.59869910E+00 -1.51973982E+01  7.59869910E+00  7.59869910E+00
 -1.51973982E+01  7.59869910E+00  7.59869910E+00 -1.51973982E+01  7.59869910E+00
  7.59869910E+00 -1.51973982E+01  7.59869910E+00  7.59869910E+00 -1.51973982E+01
  7.59869910E+00  7.59869910E+00 -1.51973982E+01  7.59869910E+00  7.59869910E+00
 -1.51973982E+01  7.59869910E+00  7.59869910E+00 -1.51973982E+01  7.59869910E+00
  7.59869910E+00 -1.51973982E+01  7.59869910E+00  7.59869910E+00 -1.51973982E+01
  7.59869910E+00  7.59869910E+00 -1.51973982E+01  7.59869910E+00  7.59869910E+00
 -1.51973982E+01  7.59869910E+00  7.59869910E+00 -1.51973982E+01  7.59869910E+00
  7.59869910E+00 -1.51973982E+01  7.59869910E+00  7.59869910E+00 -1.51973982E+01
  7.59869910E+00  7.59869910E+00 -1.51973982E+01  7.59869910E+00  7.59869910E+00
 -1.51973982E+01  7.59869910E+00  7.59869910E+00 -1.51973982E+01  7.59869910E+00
  7.59869910E+00 -1.51973982E+01  7.59869910E+00  7.59869910E+00 -1.51973982E+01
  7.59869910E+00  7.59869910E+00 -1.51973982E+01  7.59869910E+00  7.59869910E+00
 -1.51973982E+01  7.59869910E+00  7.59869910E+00 -1.51973982E+01  7.59869910E+00
  7.59869910E+00 -1.51973982E+01  7.59869910E+00  7.59869910E+00 -1.51973982E+01
  7.59869910E+00  7.59869910E+00 -1.51973982E+01  7.59869910E+00  7.59869910E+00
 -1.51973982E+01  7.59869910E+00  7.59869910E+00 -1.51973982E+01  7.59869910E+00
  7.59869910E+00 -1.51973982E+01  7.59869910E+00  7.59869910E+00 -1.51973982E+01
  7.59869910E+00  7.59869910E+00 -1.51973982E+01  7.59869910E+00  7.59869910E+00
 -1.51973982E+01  7.59869910E+00  7.59869910E+00 -1.51973982E+01  7.59869910E+00
  7.59869910E+00 -1.51973982E+01  7.59869910E+00  7.59869910E+00 -1.51973982E+01
  7.59869910E+00  7.59869910E+00 -1.51973982E+01  7.59869910E+00  7.59869910E+00
 -1.51973982E+01  7.59869910E+00  7.59869910E+00 -1.51973982E+01  7.59869910E+00
  7.59869910E+00 -1.51973982E+01  7.59869910E+00  7.59869910E+00 -1.51973982E+01
  7.59869910E+00  7.59869910E+00 -1.51973982E+01  7.59869910E+00  7.59869910E+00
 -1.51973982E+01  7.59869910E+00  7.59869910E+00 -1.51973982E+01  7.59869910E+00
  7.59869910E+00 -1.51973982E+01  7.59869910E+00  7.59869910E+00 -1.51973982E+01
  7.59869910E+00  7.59869910E+00 -1.51973982E+01  7.59869910E+00  7.59869910E+00
 -1.51973982E+01  7.59869910E+00  7.59869910E+00 -1.51973982E+01  7.59869910E+00
  7.59869910E+00 -1.51973982E+01  7.59869910E+00  7.59869910E+00 -1.51973982E+01
  7.59869910E+00  7.59869910E+00 -1.51973982E+01  7.59869910E+00  7.59869910E+00
 -1.51973982E+01  7.59869910E+00  7.59869910E+00 -1.51973982E+01  7.59869910E+00
  7.59869910E+00 -1.51973982E+01  7.59869910E+00  7.59869910E+00 -1.51973982E+01
  7.59869910E+00  7.59869910E+00 -1.51973982E+01  7.59869910E+00  7.59869910E+00
 -1.51973982E+01  7.59869910E+00  7.59869910E+00 -1.51973982E+01  7.59869910E+00
  7.59869910E+00 -1.51973982E+01  7.59869910E+00  7.59869910E+00 -1.51973982E+01
  7.59869910E+00  7.59869910E+00 -1.51973982E+01  7.59869910E+00  7.59869910E+00
 -1.51973982E+01  7.59869910E+00  7.59869910E+00 -1.51973982E+01  7.59869910E+00
  7.59869910E+00 -1.51973982E+01  7.59869910E+00  7.59869910E+00 -1.51973982E+01
  7.59869910E+00  7.59869910E+00 -1.51973982E+01  7.59869910E+00  7.59869910E+00
 -1.51973982E+01  7.59869910E+00  7.59869910E+00 -1.51973982E+01  7.59869910E+00
  7.59869910E+00 -1.51973982E+01  7.59869910E+00  7.59869910E+00 -1.51973982E+01
  7.59869910E+00  7.59869910E+00 -1.51973982E+01  7.59869910E+00  7.59869910E+00
 -1.51973982E+01  7.59869910E+00  7.59869910E+00 -1.51973982E+01  7.59869910E+00
  7.59869910E+00 -1.51973982E+01  7.59869910E+00  7.59869910E+00 -1.51973982E+01
  7.59869910E+00  7.59869910E+00 -1.51973982E+01  7.59869910E+00  7.59869910E+00
 -1.51973982E+01  7.59869910E+00  7.59869910E+00 -1.51973982E+01  7.59869910E+00
  7.59869910E+00 -1.51973982E+01  7.59869910E+00  7.59869910E+00 -1.51973982E+01
  7.59869910E+00  7.59869910E+00 -1.51973982E+01  7.59869910E+00  7.59869910E+00
 -1.51973982E+01  7.59869910E+00  7.59869910E+00 -1.51973982E+01  7.59869910E+00
  7.59869910E+00 -1.51973982E+01  7.59869910E+00  7.59869910E+00 -1.51973982E+01
  7.59869910E+00  7.59869910E+00 -1.51973982E+01  7.59869910E+00  7.59869910E+00
 -1.51973982E+01  7.59869910E+00  7.59869910E+00 -1.51973982E+01  7.59869910E+00
  7.59869910E+00 -1.51973982E+01  7.59869910E+00  7.59869910E+00 -1.51973982E+01
  7.59869910E+00  7.59869910E+00 -1.51973982E+01  7.59869910E+00  7.59869910E+00
 -1.51973982E+01  7.59869910E+00  7.59869910E+00 -1.51973982E+01  7.59869910E+00
  7.59869910E+00 -1.51973982E+01  7.59869910E+00  7.59869910E+00 -1.51973982E+01
  7.59869910E+00  7.59869910E+00 -1.51973982E+01  7.59869910E+00  7.59869910E+00
 -1.51973982E+01  7.59869910E+00  7.59869910E+00 -1.51973982E+01  7.59869910E+00
  7.59869910E+00 -1.51973982E+01  7.59869910E+00  7.59869910E+00 -1.51973982E+01
  7.59869910E+00  7.59869910E+00 -1.51973982E+01  7.59869910E+00  7.59869910E+00
 -1.51973982E+01  7.59869910E+00  7.59869910E+00 -1.51973982E+01  7.59869910E+00
  7.59869910E+00 -1.51973982E+01  7.59869910E+00  7.59869910E+00 -1.51973982E+01
  7.59869910E+00  7.59869910E+00 -1.51973982E+01  7.59869910E+00  7.59869910E+00
 -1.51973982E+01  7.59869910E+00  7.59869910E+00 -1.51973982E+01  7.59869910E+00
  7.59869910E+00 -1.51973982E+01  7.59869910E+00  7.59869910E+00 -1.51973982E+01
  7.59869910E+00  7.59869910E+00 -1.51973982E+01  7.59869910E+00  7.59869910E+00
 -1.51973982E+01  7.59869910E+00  7.59869910E+00 -1.51973982E+01  7.59869910E+00
  7.59869910E+00 -1.51973982E+01  7.59869910E+00  7.59869910E+00 -1.51973982E+01
  7.59869910E+00  7.59869910E+00 -1.51973982E+01  7.59869910E+00  7.59869910E+00
 -1.51973982E+01  7.59869910E+00  7.59869910E+00 -1.51973982E+01  7.59869910E+00
  7.59869910E+00 -1.51973982E+01  7.59869910E+00  7.59869910E+00 -1.51973982E+01
  7.59869910E+00  7.59869910E+00 -1.51973982E+01  7.59869910E+00  7.59869910E+00
 -1.51973982E+01  7.59869910E+00  7.59869910E+00 -1.51973982E+01  7.59869910E+00
  7.59869910E+00 -1.51973982E+01  7.59869910E+00  7.59869910E+00 -1.51973982E+01
  7.59869910E+00  7.59869910E+00 -1.51973982E+01  7.59869910E+00  7.59869910E+00
 -1.51973982E+01  7.59869910E+00  7.59869910E+00 -1.51973982E+01  7.59869910E+00
  7.59869910E+00 -1.51973982E+01  7.59869910E+00  7.59869910E+00 -1.51973982E+01
  7.59869910E+00  7.59869910E+00 -1.51973982E+01  7.59869910E+00  7.59869910E+00
 -1.51973982E+01  7.59869910E+00  7.59869910E+00 -1.51973982E+01  7.59869910E+00
  7.59869910E+00 -1.51973982E+01  7.59869910E+00  7.59869910E+00 -1.51973982E+01
  7.59869910E+00  7.59869910E+00 -1.51973982E+01  7.59869910E+00  7.59869910E+00
 -1.51973982E+01  7.59869910E+00  7.59869910E+00 -1.51973982E+01  7.59869910E+00
  7.59869910E+00 -1.51973982E+01  7.59869910E+00  7.59869910E+00 -1.51973982E+01
  7.59869910E+00  7.59869910E+00 -1.51973982E+01  7.59869910E+00  7.59869910E+00
 -1.51973982E+01  7.59869910E+00  7.59869910E+00 -1.51973982E+01  7.59869910E+00
  7.59869910E+00 -1.51973982E+01  7.59869910E+00  7.59869910E+00 -1.51973982E+01
  7.59869910E+00  7.59869910E+00 -1.51973982E+01  7.59869910E+00  7.59869910E+00
 -1.51973982E+01  7.59869910E+00  7.59869910E+00 -1.51973982E+01  7.59869910E+00
  7.59869910E+00 -1.51973982E+01  7.59869910E+00  7.59869910E+00 -1.51973982E+01
  7.59869910E+00  7.59869910E+00 -1.51973982E+01  7.59869910E+00  7.59869910E+00
 -1.51973982E+01  7.59869910E+00  7.59869910E+00 -1.51973982E+01  7.59869910E+00
  7.59869910E+00 -1.51973982E+01  7.59869910E+00  7.59869910E+00 -1.51973982E+01
  7.59869910E+00  7.59869910E+00 -1.51973982E+01  7.59869910E+00  7.59869910E+00
 -1.51973982E+01  7.59869910E+00  7.59869910E+00 -1.51973982E+01  7.59869910E+00
  7.59869910E+00 -1.51973982E+01  7.59869910E+00  7.59869910E+00 -1.51973982E+01
  7.59869910E+00  7.59869910E+00 -1.51973982E+01  7.59869910E+00  7.59869910E+00
 -1.51973982E+01  7.59869910E+00  7.59869910E+00 -1.51973982E+01  7.59869910E+00
  7.59869910E+00 -1.51973982E+01  7.59869910E+00  7.59869910E+00 -1.51973982E+01
  7.59869910E+00  7.59869910E+00 -1.51973982E+01  7.59869910E+00  7.59869910E+00
 -1.51973982E+01  7.59869910E+00  7.59869910E+00 -1.51973982E+01  7.59869910E+00
  7.59869910E+00 -1.51973982E+01  7.59869910E+00  7.59869910E+00 -1.51973982E+01
  7.59869910E+00  7.59869910E+00 -1.51973982E+01  7.59869910E+00  7.59869910E+00
 -1.51973982E+01  7.59869910E+00  7.59869910E+00 -1.51973982E+01  7.59869910E+00
  7.59869910E+00 -1.51973982E+01  7.59869910E+00  7.59869910E+00 -1.51973982E+01
  7.59869910E+00  7.59869910E+00 -1.51973982E+01  7.59869910E+00  7.59869910E+00
 -1.51973982E+01  7.59869910E+00  7.59869910E+00 -1.51973982E+01  7.59869910E+00
  7.59869910E+00 -1.51973982E+01  7.59869910E+00  7.59869910E+00 -1.51973982E+01
  7.59869910E+00  7.59869910E+00 -1.51973982E+01  7.59869910E+00  7.59869910E+00
 -1.51973982E+01  7.59869910E+00  7.59869910E+00 -1.51973982E+01  7.59869910E+00
  7.59869910E+00 -1.51973982E+01  7.59869910E+00  7.59869910E+00 -1.51973982E+01
  7.59869910E+00  7.59869910E+00 -1.51973982E+01  7.59869910E+00  7.59869910E+00
 -1.51973982E+01  7.59869910E+00  7.59869910E+00 -1.51973982E+01  7.59869910E+00
  7.59869910E+00 -1.51973982E+01  7.59869910E+00  7.59869910E+00 -1.51973982E+01
  7.59869910E+00  7.59869910E+00 -1.51973982E+01  7.59869910E+00  7.59869910E+00
 -1.51973982E+01  7.59869910E+00  7.59869910E+00 -1.51973982E+01  7.59869910E+00
  7.59869910E+00 -1.51973982E+01  7.59869910E+00  7.59869910E+00 -1.51973982E+01
  7.59869910E+00  7.59869910E+00 -1.51973982E+01  7.59869910E+00  7.59869910E+00
 -1.51973982E+01  7.59869910E+00  7.59869910E+00 -1.51973982E+01  7.59869910E+00
  7.59869910E+00 -1.51973982E+01  7.59869910E+00  7.59869910E+00 -1.51973982E+01
  7.59869910E+00  7.59869910E+00 -1.51973982E+01  7.59869910E+00  7.59869910E+00
 -1.51973982E+01  7.59869910E+00  7.59869910E+00 -1.51973982E+01  7.59869910E+00
  7.59869910E+00 -1.51973982E+01  7.59869910E+00  7.59869910E+00 -1.51973982E+01
  7.59869910E+00  7.59869910E+00 -1.51973982E+01  7.59869910E+00  7.59869910E+00
 -1.51973982E+01  7.59869910E+00  7.59869910E+00 -1.51973982E+01  7.59869910E+00
  7.59869910E+00 -1.51973982E+01  7.59869910E+00  7.59869910E+00 -1.51973982E+01
  7.59869910E+00  7.59869910E+00 -1.51973982E+01  7.59869910E+00  7.59869910E+00
 -1.51973982E+01  7.59869910E+00  7.59869910E+00 -1.51973982E+01  7.59869910E+00
  7.59869910E+00 -1.51973982E+01  7.59869910E+00  7.59869910E+00 -1.51973982E+01
  7.59869910E+00  7.59869910E+00 -1.51973982E+01  7.59869910E+00  7.59869910E+00
 -1.51973982E+01  7.59869910E+00  7.59869910E+00 -1.51973982E+01  7.59869910E+00
  7.59869910E+00 -1.51973982E+01  7.59869910E+00  7.59869910E+00 -1.51973982E+01
  7.59869910E+00  7.59869910E+00 -1.51973982E+01  7.59869910E+00  7.59869910E+00
 -1.51973982E+01  7.59869910E+00  7.59869910E+00 -1.51973982E+01  7.59869910E+00
  7.59869910E+00 -1.51973982E+01  7.59869910E+00  7.59869910E+00 -1.51973982E+01
  7.59869910E+00  7.59869910E+00 -1.51973982E+01  7.59869910E+00  7.59869910E+00
 -1.51973982E+01  7.59869910E+00  7.59869910E+00 -1.51973982E+01  7.59869910E+00
  7.59869910E+00 -1.51973982E+01  7.59869910E+00  7.59869910E+00 -1.51973982E+01
  7.59869910E+00  7.59869910E+00 -1.51973982E+01  7.59869910E+00  7.59869910E+00
 -1.51973982E+01  7.59869910E+00  7.59869910E+00 -1.51973982E+01  7.59869910E+00
  7.59869910E+00 -1.51973982E+01  7.59869910E+00  7.59869910E+00 -1.51973982E+01
  7.59869910E+00  7.59869910E+00 -1.51973982E+01  7.59869910E+00  7.59869910E+00
 -1.51973982E+01  7.59869910E+00  7.59869910E+00 -1.51973982E+01  7.59869910E+00
  7.59869910E+00 -1.51973982E+01  7.59869910E+00  7.59869910E+00 -1.51973982E+01
  7.59869910E+00  7.59869910E+00 -1.51973982E+01  7.59869910E+00  7.59869910E+00
 -1.51973982E+01  7.59869910E+00  7.59869910E+00 -1.51973982E+01  7.59869910E+00
  7.59869910E+00 -1.51973982E+01  7.59869910E+00  7.59869910E+00 -1.51973982E+01
  7.59869910E+00  7.59869910E+00 -1.51973982E+01  7.59869910E+00  7.59869910E+00
 -1.51973982E+01  7.59869910E+00  7.59869910E+00 -1.51973982E+01  7.59869910E+00
  7.59869910E+00 -1.51973982E+01  7.59869910E+00  7.59869910E+00 -1.51973982E+01
  7.59869910E+00  7.59869910E+00 -1.51973982E+01  7.59869910E+00  7.59869910E+00
 -1.51973982E+01  7.59869910E+00  7.59869910E+00 -1.51973982E+01  7.59869910E+00
  7.59869910E+00 -1.51973982E+01  7.59869910E+00  7.59869910E+00 -1.51973982E+01
  7.59869910E+00  7.59869910E+00 -1.51973982E+01  7.59869910E+00  7.59869910E+00
 -1.51973982E+01  7.59869910E+00  7.59869910E+00 -1.51973982E+01  7.59869910E+00
  7.59869910E+00 -1.51973982E+01  7.59869910E+00  7.59869910E+00 -1.51973982E+01
  7.59869910E+00  7.59869910E+00 -1.51973982E+01  7.59869910E+00  7.59869910E+00
 -1.51973982E+01  7.59869910E+00  7.59869910E+00 -1.51973982E+01  7.59869910E+00
  7.59869910E+00 -1.51973982E+01  7.59869910E+00  7.59869910E+00 -1.51973982E+01
  7.59869910E+00  7.59869910E+00 -1.51973982E+01  7.59869910E+00  7.59869910E+00
 -1.51973982E+01  7.59869910E+00  7.59869910E+00 -1.51973982E+01  7.59869910E+00
  7.59869910E+00 -1.51973982E+01  7.59869910E+00  7.59869910E+00 -1.51973982E+01
  7.59869910E+00  7.59869910E+00 -1.51973982E+01  7.59869910E+00  7.59869910E+00
 -1.51973982E+01  7.59869910E+00  7.59869910E+00 -1.51973982E+01  7.59869910E+00
  7.59869910E+00 -1.51973982E+01  7.59869910E+00  7.59869910E+00 -1.51973982E+01
  7.59869910E+00  7.59869910E+00 -1.51973982E+01  7.59869910E+00  7.59869910E+00
 -1.51973982E+01  7.59869910E+00  7.59869910E+00 -1.51973982E+01  7.59869910E+00
  7.59869910E+00 -1.51973982E+01  7.59869910E+00  7.59869910E+00 -1.51973982E+01
  7.59869910E+00  7.59869910E+00 -1.51973982E+01  7.59869910E+00  7.59869910E+00
 -1.51973982E+01  7.59869910E+00  7.59869910E+00 -1.51973982E+01  7.59869910E+00
  7.59869910E+00 -1.51973982E+01  7.59869910E+00  7.59869910E+00 -1.51973982E+01
  7.59869910E+00  7.59869910E+00 -1.51973982E+01  7.59869910E+00  7.59869910E+00
 -1.51973982E+01  7.59869910E+00  7.59869910E+00 -1.51973982E+01  7.59869910E+00
  7.59869910E+00 -1.51973982E+01  7.59869910E+00  7.59869910E+00 -1.51973982E+01
  7.59869910E+00  7.59869910E+00 -1.51973982E+01  7.59869910E+00  7.59869910E+00
 -1.51973982E+01  7.59869910E+00  7.59869910E+00 -1.51973982E+01  7.59869910E+00
  7.59869910E+00 -1.51973982E+01  7.59869910E+00  7.59869910E+00 -1.51973982E+01
  7.59869910E+00  7.59869910E+00 -1.51973982E+01  7.59869910E+00  7.59869910E+00
 -1.51973982E+01  7.59869910E+00  7.59869910E+00 -1.51973982E+01  7.59869910E+00
  7.59869910E+00 -1.51973982E+01  7.59869910E+00  7.59869910E+00 -1.51973982E+01
  7.59869910E+00  7.59869910E+00 -1.51973982E+01  7.59869910E+00  7.59869910E+00
 -1.51973982E+01  7.59869910E+00  7.59869910E+00 -1.51973982E+01  7.59869910E+00
  7.59869910E+00 -1.51973982E+01  7.59869910E+00  7.59869910E+00 -1.51973982E+01
  7.59869910E+00  7.59869910E+00 -1.51973982E+01  7.59869910E+00  7.59869910E+00
 -1.51973982E+01  7.59869910E+00  7.59869910E+00 -1.51973982E+01  7.59869910E+00
  7.59869910E+00 -1.51973982E+01  7.59869910E+00  7.59869910E+00 -1.51973982E+01
  7.59869910E+00  7.59869910E+00 -1.51973982E+01  7.59869910E+00  7.59869910E+00
 -1.51973982E+01  7.59869910E+00  7.59869910E+00 -1.51973982E+01  7.59869910E+00
  7.59869910E+00 -1.51973982E+01  7.59869910E+00  7.59869910E+00 -1.51973982E+01
  7.59869910E+00  7.59869910E+00 -1.51973982E+01  7.59869910E+00  7.59869910E+00
 -1.51973982E+01  7.59869910E+00  7.59869910E+00 -1.51973982E+01  7.59869910E+00
  7.59869910E+00 -1.51973982E+01  7.59869910E+00  7.59869910E+00 -1.51973982E+01
  7.59869910E+00  7.59869910E+00 -1.51973982E+01  7.59869910E+00  7.59869910E+00
 -1.51973982E+01  7.59869910E+00  7.59869910E+00 -1.51973982E+01  7.59869910E+00
  7.59869910E+00 -1.51973982E+01  7.59869910E+00  7.59869910E+00 -1.51973982E+01
  7.59869910E+00  7.59869910E+00 -1.51973982E+01  7.59869910E+00  7.59869910E+00
 -1.51973982E+01  7.59869910E+00  7.59869910E+00 -1.51973982E+01  7.59869910E+00
  7.59869910E+00 -1.51973982E+01  7.59869910E+00  7.59869910E+00 -1.51973982E+01
  7.59869910E+00  7.59869910E+00 -1.51973982E+01  7.59869910E+00  7.59869910E+00
 -1.51973982E+01  7.59869910E+00  7.59869910E+00 -1.51973982E+01  7.59869910E+00
  7.59869910E+00 -1.51973982E+01  7.59869910E+00  7.59869910E+00 -1.51973982E+01
  7.59869910E+00  7.59869910E+00 -1.51973982E+01  7.59869910E+00  7.59869910E+00
 -1.51973982E+01  7.59869910E+00  7.59869910E+00 -1.51973982E+01  7.59869910E+00
  7.59869910E+00 -1.51973982E+01  7.59869910E+00  7.59869910E+00 -1.51973982E+01
  7.59869910E+00  7.59869910E+00 -1.51973982E+01  7.59869910E+00  7.59869910E+00
 -1.51973982E+01  7.59869910E+00  7.59869910E+00 -1.51973982E+01  7.59869910E+00
  7.59869910E+00 -1.51973982E+01  7.59869910E+00  7.59869910E+00 -1.51973982E+01
  7.59869910E+00  7.59869910E+00 -1.51973982E+01  7.59869910E+00  7.59869910E+00
 -1.51973982E+01  7.59869910E+00  7.59869910E+00 -1.51973982E+01  7.59869910E+00
  7.59869910E+00 -1.51973982E+01  7.59869910E+00  7.59869910E+00 -1.51973982E+01
  7.59869910E+00  7.59869910E+00 -1.51973982E+01  7.59869910E+00  7.59869910E+00
 -1.51973982E+01  7.59869910E+00  7.59869910E+00 -1.51973982E+01  7.59869910E+00
  7.59869910E+00 -1.51973982E+01  7.59869910E+00  7.59869910E+00 -1.51973982E+01
  7.59869910E+00  7.59869910E+00 -1.51973982E+01  7.59869910E+00  7.59869910E+00
 -1.51973982E+01  7.59869910E+00  7.59869910E+00 -1.51973982E+01  7.59869910E+00
  7.59869910E+00 -1.51973982E+01  7.59869910E+00  7.59869910E+00 -1.51973982E+01
  7.59869910E+00  7.59869910E+00 -1.51973982E+01  7.59869910E+00  7.59869910E+00
 -1.51973982E+01  7.59869910E+00  7.59869910E+00 -1.51973982E+01  7.59869910E+00
  7.59869910E+00 -1.51973982E+01  7.59869910E+00  7.59869910E+00 -1.51973982E+01
  7.59869910E+00  7.59869910E+00 -1.51973982E+01  7.59869910E+00  7.59869910E+00
 -1.51973982E+01  7.59869910E+00  7.59869910E+00 -1.51973982E+01  7.59869910E+00
  7.59869910E+00 -1.51973982E+01  7.59869910E+00  7.59869910E+00 -1.51973982E+01
  7.59869910E+00  7.59869910E+00 -1.51973982E+01  7.59869910E+00  7.59869910E+00
 -1.51973982E+01  7.59869910E+00  7.59869910E+00 -1.51973982E+01  7.59869910E+00
  7.59869910E+00 -1.51973982E+01  7.59869910E+00  7.59869910E+00 -1.51973982E+01
  7.59869910E+00  7.59869910E+00 -1.51973982E+01  7.59869910E+00  7.59869910E+00
 -1.51973982E+01  7.59869910E+00  7.59869910E+00 -1.51973982E+01  7.59869910E+00
  7.59869910E+00 -1.51973982E+01  7.59869910E+00  7.59869910E+00 -1.51973982E+01
  7.59869910E+00  7.59869910E+00 -1.51973982E+01  7.59869910E+00  7.59869910E+00
 -1.51973982E+01  7.59869910E+00  7.59869910E+00 -1.51973982E+01  7.59869910E+00
  7.59869910E+00 -1.51973982E+01  7.59869910E+00  7.59869910E+00 -1.51973982E+01
  7.59869910E+00  7.59869910E+00 -1.51973982E+01  7.59869910E+00  7.59869910E+00
 -1.51973982E+01  7.59869910E+00  7.59869910E+00 -1.51973982E+01  7.59869910E+00
  7.59869910E+00 -1.51973982E+01  7.59869910E+00  7.59869910E+00 -1.51973982E+01
  7.59869910E+00  7.59869910E+00 -1.51973982E+01  7.59869910E+00  7.59869910E+00
 -1.51973982E+01  7.59869910E+00  7.59869910E+00 -1.51973982E+01  7.59869910E+00
  7.59869910E+00 -1.51973982E+01  7.59869910E+00  7.59869910E+00 -1.51973982E+01
  7.59869910E+00  7.59869910E+00 -1.51973982E+01  7.59869910E+00  7.59869910E+00
 -1.51973982E+01  7.59869910E+00  7.59869910E+00 -1.51973982E+01  7.59869910E+00
  7.59869910E+00 -1.51973982E+01  7.59869910E+00  7.59869910E+00 -1.51973982E+01
  7.59869910E+00  7.59869910E+00 -1.51973982E+01  7.59869910E+00  7.59869910E+00
 -1.51973982E+01  7.59869910E+00  7.59869910E+00 -1.51973982E+01  7.59869910E+00
  7.59869910E+00 -1.51973982E+01  7.59869910E+00  7.59869910E+00 -1.51973982E+01
  7.59869910E+00  7.59869910E+00 -1.51973982E+01  7.59869910E+00  7.59869910E+00
 -1.51973982E+01  7.59869910E+00  7.59869910E+00 -1.51973982E+01  7.59869910E+00
  7.59869910E+00 -1.51973982E+01  7.59869910E+00  7.59869910E+00 -1.51973982E+01
  7.59869910E+00  7.59869910E+00 -1.51973982E+01  7.59869910E+00  7.59869910E+00
 -1.51973982E+01  7.59869910E+00  7.59869910E+00 -1.51973982E+01  7.59869910E+00
  7.59869910E+00 -1.51973982E+01  7.59869910E+00  7.59869910E+00 -1.51973982E+01
  7.59869910E+00  7.59869910E+00 -1.51973982E+01  7.59869910E+00  7.59869910E+00
 -1.51973982E+01  7.59869910E+00  7.59869910E+00 -1.51973982E+01  7.59869910E+00
  7.59869910E+00 -1.51973982E+01  7.59869910E+00  7.59869910E+00 -1.51973982E+01
  7.59869910E+00  7.59869910E+00 -1.51973982E+01  7.59869910E+00  7.59869910E+00
 -1.51973982E+01  7.59869910E+00  7.59869910E+00 -1.51973982E+01  7.59869910E+00
  7.59869910E+00 -1.51973982E+01  7.59869910E+00  7.59869910E+00 -1.51973982E+01
  7.59869910E+00  7.59869910E+00 -1.51973982E+01  7.59869910E+00  7.59869910E+00
 -1.51973982E+01  7.59869910E+00  7.59869910E+00 -1.51973982E+01  7.59869910E+00
  7.59869910E+00 -1.51973982E+01  7.59869910E+00  7.59869910E+00 -1.51973982E+01
  7.59869910E+00  7.59869910E+00 -1.51973982E+01  7.59869910E+00  7.59869910E+00
 -1.51973982E+01  7.59869910E+00  7.59869910E+00 -1.51973982E+01  7.59869910E+00
  7.59869910E+00 -1.51973982E+01  7.59869910E+00  7.59869910E+00 -1.51973982E+01
  7.59869910E+00  7.59869910E+00 -1.51973982E+01  7.59869910E+00  7.59869910E+00
 -1.51973982E+01  7.59869910E+00  7.59869910E+00 -1.51973982E+01  7.59869910E+00
  7.59869910E+00 -1.51973982E+01  7.59869910E+00  7.59869910E+00 -1.51973982E+01
  7.59869910E+00  7.59869910E+00 -1.51973982E+01  7.59869910E+00  7.59869910E+00
 -1.51973982E+01  7.59869910E+00  7.59869910E+00 -1.51973982E+01  7.59869910E+00
  7.59869910E+00 -1.51973982E+01  7.59869910E+00  7.59869910E+00 -1.51973982E+01
  7.59869910E+00  7.59869910E+00 -1.51973982E+01  7.59869910E+00  7.59869910E+00
 -1.51973982E+01  7.59869910E+00  7.59869910E+00 -1.51973982E+01  7.59869910E+00
  7.59869910E+00 -1.51973982E+01  7.59869910E+00  7.59869910E+00 -1.51973982E+01
  7.59869910E+00  7.59869910E+00 -1.51973982E+01  7.59869910E+00  7.59869910E+00
 -1.51973982E+01  7.59869910E+00  7.59869910E+00 -1.51973982E+01  7.59869910E+00
  7.59869910E+00 -1.51973982E+01  7.59869910E+00  7.59869910E+00 -1.51973982E+01
  7.59869910E+00  7.59869910E+00 -1.51973982E+01  7.59869910E+00  7.59869910E+00
 -1.51973982E+01  7.59869910E+00  7.59869910E+00 -1.51973982E+01  7.59869910E+00
  7.59869910E+00 -1.51973982E+01  7.59869910E+00  7.59869910E+00 -1.51973982E+01
  7.59869910E+00  7.59869910E+00 -1.51973982E+01  7.59869910E+00  7.59869910E+00
 -1.51973982E+01  7.59869910E+00  7.59869910E+00 -1.51973982E+01  7.59869910E+00
  7.59869910E+00 -1.51973982E+01  7.59869910E+00  7.59869910E+00 -1.51973982E+01
  7.59869910E+00  7.59869910E+00 -1.51973982E+01  7.59869910E+00  7.59869910E+00
 -1.51973982E+01  7.59869910E+00  7.59869910E+00 -1.51973982E+01  7.59869910E+00
  7.59869910E+00 -1.51973982E+01  7.59869910E+00  7.59869910E+00 -1.51973982E+01
  7.59869910E+00  7.59869910E+00 -1.51973982E+01  7.59869910E+00  7.59869910E+00
 -1.51973982E+01  7.59869910E+00  7.59869910E+00 -1.51973982E+01  7.59869910E+00
  7.59869910E+00 -1.51973982E+01  7.59869910E+00  7.59869910E+00 -1.51973982E+01
  7.59869910E+00  7.59869910E+00 -1.51973982E+01  7.59869910E+00  7.59869910E+00
 -1.51973982E+01  7.59869910E+00  7.59869910E+00 -1.51973982E+01  7.59869910E+00
  7.59869910E+00 -1.51973982E+01  7.59869910E+00  7.59869910E+00 -1.51973982E+01
  7.59869910E+00  7.59869910E+00 -1.51973982E+01  7.59869910E+00  7.59869910E+00
 -1.51973982E+01  7.59869910E+00  7.59869910E+00 -1.51973982E+01  7.59869910E+00
  7.59869910E+00 -1.51973982E+01  7.59869910E+00  7.59869910E+00 -1.51973982E+01
  7.59869910E+00  7.59869910E+00 -1.51973982E+01  7.59869910E+00  7.59869910E+00
 -1.51973982E+01  7.59869910E+00  7.59869910E+00 -1.51973982E+01  7.59869910E+00
  7.59869910E+00 -1.51973982E+01  7.59869910E+00  7.59869910E+00 -1.51973982E+01
  7.59869910E+00  7.59869910E+00 -1.51973982E+01  7.59869910E+00  7.59869910E+00
 -1.51973982E+01  7.59869910E+00  7.59869910E+00 -1.51973982E+01  7.59869910E+00
  7.59869910E+00 -1.51973982E+01  7.59869910E+00  7.59869910E+00 -1.51973982E+01
  7.59869910E+00  7.59869910E+00 -1.51973982E+01  7.59869910E+00  7.59869910E+00
 -1.51973982E+01  7.59869910E+00  7.59869910E+00 -1.51973982E+01  7.59869910E+00
  7.59869910E+00 -1.51973982E+01  7.59869910E+00  7.59869910E+00 -1.51973982E+01
  7.59869910E+00  7.59869910E+00 -1.51973982E+01  7.59869910E+00  7.59869910E+00
 -1.51973982E+01  7.59869910E+00  7.59869910E+00 -1.51973982E+01  7.59869910E+00
  7.59869910E+00 -1.51973982E+01  7.59869910E+00  7.59869910E+00 -1.51973982E+01
  7.59869910E+00  7.59869910E+00 -1.51973982E+01  7.59869910E+00  7.59869910E+00
 -1.51973982E+01  7.59869910E+00  7.59869910E+00 -1.51973982E+01  7.59869910E+00
  7.59869910E+00 -1.51973982E+01  7.59869910E+00  7.59869910E+00 -1.51973982E+01
  7.59869910E+00  7.59869910E+00 -1.51973982E+01  7.59869910E+00  7.59869910E+00
 -1.51973982E+01  7.59869910E+00  7.59869910E+00 -1.51973982E+01  7.59869910E+00
  7.59869910E+00 -1.51973982E+01  7.59869910E+00  7.59869910E+00 -1.51973982E+01
  7.59869910E+00  7.59869910E+00 -1.51973982E+01  7.59869910E+00  7.59869910E+00
 -1.51973982E+01  7.59869910E+00  7.59869910E+00 -1.51973982E+01  7.59869910E+00
  7.59869910E+00 -1.51973982E+01  7.59869910E+00  7.59869910E+00 -1.51973982E+01
  7.59869910E+00  7.59869910E+00 -1.51973982E+01  7.59869910E+00  7.59869910E+00
 -1.51973982E+01  7.59869910E+00  7.59869910E+00 -1.51973982E+01  7.59869910E+00
  7.59869910E+00 -1.51973982E+01  7.59869910E+00  7.59869910E+00 -1.51973982E+01
  7.59869910E+00  7.59869910E+00 -1.51973982E+01  7.59869910E+00  7.59869910E+00
 -1.51973982E+01  7.59869910E+00  7.59869910E+00 -1.51973982E+01  7.59869910E+00
  7.59869910E+00 -1.51973982E+01  7.59869910E+00  7.59869910E+00 -1.51973982E+01
  7.59869910E+00  7.59869910E+00 -1.51973982E+01  7.59869910E+00  7.59869910E+00
 -1.51973982E+01  7.59869910E+00  7.59869910E+00 -1.51973982E+01  7.59869910E+00
  7.59869910E+00 -1.51973982E+01  7.59869910E+00  7.59869910E+00 -1.51973982E+01
  7.59869910E+00  7.59869910E+00 -1.51973982E+01  7.59869910E+00  7.59869910E+00
 -1.51973982E+01  7.59869910E+00  7.59869910E+00 -1.51973982E+01  7.59869910E+00
  7.59869910E+00 -1.51973982E+01  7.59869910E+00  7.59869910E+00 -1.51973982E+01
  7.59869910E+00  7.59869910E+00 -1.51973982E+01  7.59869910E+00  7.59869910E+00
 -1.51973982E+01  7.59869910E+00  7.59869910E+00 -1.51973982E+01  7.59869910E+00
  7.59869910E+00 -1.51973982E+01  7.59869910E+00  7.59869910E+00 -1.51973982E+01
  7.59869910E+00  7.59869910E+00 -1.51973982E+01  7.59869910E+00  7.59869910E+00
 -1.51973982E+01  7.59869910E+00  7.59869910E+00 -1.51973982E+01  7.59869910E+00
  7.59869910E+00 -1.51973982E+01  7.59869910E+00  7.59869910E+00 -1.51973982E+01
  7.59869910E+00  7.59869910E+00 -1.51973982E+01  7.59869910E+00  7.59869910E+00
 -1.51973982E+01  7.59869910E+00  7.59869910E+00 -1.51973982E+01  7.59869910E+00
  7.59869910E+00 -1.51973982E+01  7.59869910E+00  7.59869910E+00 -1.51973982E+01
  7.59869910E+00  7.59869910E+00 -1.51973982E+01  7.59869910E+00  7.59869910E+00
 -1.51973982E+01  7.59869910E+00  7.59869910E+00 -1.51973982E+01  7.59869910E+00
  7.59869910E+00 -1.51973982E+01  7.59869910E+00  7.59869910E+00 -1.51973982E+01
  7.59869910E+00  7.59869910E+00 -1.51973982E+01  7.59869910E+00  7.59869910E+00
 -1.51973982E+01  7.59869910E+00  7.59869910E+00 -1.51973982E+01  7.59869910E+00
  7.59869910E+00 -1.51973982E+01  7.59869910E+00  7.59869910E+00 -1.51973982E+01
  7.59869910E+00  7.59869910E+00 -1.51973982E+01  7.59869910E+00  7.59869910E+00
 -1.51973982E+01  7.59869910E+00  7.59869910E+00 -1.51973982E+01  7.59869910E+00
  7.59869910E+00 -1.51973982E+01  7.59869910E+00  7.59869910E+00 -1.51973982E+01
  7.59869910E+00  7.59869910E+00 -1.51973982E+01  7.59869910E+00  7.59869910E+00
 -1.51973982E+01  7.59869910E+00  7.59869910E+00 -1.51973982E+01  7.59869910E+00
  7.59869910E+00 -1.51973982E+01  7.59869910E+00  7.59869910E+00 -1.51973982E+01
  7.59869910E+00  7.59869910E+00 -1.51973982E+01  7.59869910E+00  7.59869910E+00
 -1.51973982E+01  7.59869910E+00  7.59869910E+00 -1.51973982E+01  7.59869910E+00
  7.59869910E+00 -1.51973982E+01  7.59869910E+00  7.59869910E+00 -1.51973982E+01
  7.59869910E+00  7.59869910E+00 -1.51973982E+01  7.59869910E+00  7.59869910E+00
 -1.51973982E+01  7.59869910E+00  7.59869910E+00 -1.51973982E+01  7.59869910E+00
  7.59869910E+00 -1.51973982E+01  7.59869910E+00  7.59869910E+00 -1.51973982E+01
  7.59869910E+00  7.59869910E+00 -1.51973982E+01  7.59869910E+00  7.59869910E+00
 -1.51973982E+01  7.59869910E+00  7.59869910E+00 -1.51973982E+01  7.59869910E+00
  7.59869910E+00 -1.51973982E+01  7.59869910E+00  7.59869910E+00 -1.51973982E+01
  7.59869910E+00  7.59869910E+00 -1.51973982E+01  7.59869910E+00  7.59869910E+00
 -1.51973982E+01  7.59869910E+00  7.59869910E+00 -1.51973982E+01  7.59869910E+00
  7.59869910E+00 -1.51973982E+01  7.59869910E+00  7.59869910E+00 -1.51973982E+01
  7.59869910E+00  7.59869910E+00 -1.51973982E+01  7.59869910E+00  7.59869910E+00
 -1.51973982E+01  7.59869910E+00  7.59869910E+00 -1.51973982E+01  7.59869910E+00
  7.59869910E+00 -1.51973982E+01  7.59869910E+00  7.59869910E+00 -1.51973982E+01
  7.59869910E+00  7.59869910E+00 -1.51973982E+01  7.59869910E+00  7.59869910E+00
 -1.51973982E+01  7.59869910E+00  7.59869910E+00 -1.51973982E+01  7.59869910E+00
  7.59869910E+00 -1.51973982E+01  7.59869910E+00  7.59869910E+00 -1.51973982E+01
  7.59869910E+00  7.59869910E+00 -1.51973982E+01  7.59869910E+00  7.59869910E+00
 -1.51973982E+01  7.59869910E+00  7.59869910E+00 -1.51973982E+01  7.59869910E+00
  7.59869910E+00 -1.51973982E+01  7.59869910E+00  7.59869910E+00 -1.51973982E+01
  7.59869910E+00  7.59869910E+00 -1.51973982E+01  7.59869910E+00  7.59869910E+00
 -1.51973982E+01  7.59869910E+00  7.59869910E+00 -1.51973982E+01  7.59869910E+00
  7.59869910E+00 -1.51973982E+01  7.59869910E+00  7.59869910E+00 -1.51973982E+01
  7.59869910E+00  7.59869910E+00 -1.51973982E+01  7.59869910E+00  7.59869910E+00
 -1.51973982E+01  7.59869910E+00  7.59869910E+00 -1.51973982E+01  7.59869910E+00
  7.59869910E+00 -1.51973982E+01  7.59869910E+00  7.59869910E+00 -1.51973982E+01
  7.59869910E+00  7.59869910E+00 -1.51973982E+01  7.59869910E+00  7.59869910E+00
 -1.51973982E+01  7.59869910E+00  7.59869910E+00 -1.51973982E+01  7.59869910E+00
  7.59869910E+00 -1.51973982E+01  7.59869910E+00  7.59869910E+00 -1.51973982E+01
  7.59869910E+00  7.59869910E+00 -1.51973982E+01  7.59869910E+00  7.59869910E+00
 -1.51973982E+01  7.59869910E+00  7.59869910E+00 -1.51973982E+01  7.59869910E+00
  7.59869910E+00 -1.51973982E+01  7.59869910E+00  7.59869910E+00 -1.51973982E+01
  7.59869910E+00  7.59869910E+00 -1.51973982E+01  7.59869910E+00  7.59869910E+00
 -1.51973982E+01  7.59869910E+00  7.59869910E+00 -1.51973982E+01  7.59869910E+00
  7.59869910E+00 -1.51973982E+01  7.59869910E+00  7.59869910E+00 -1.51973982E+01
  7.59869910E+00  7.59869910E+00 -1.51973982E+01  7.59869910E+00  7.59869910E+00
 -1.51973982E+01  7.59869910E+00  7.59869910E+00 -1.51973982E+01  7.59869910E+00
  7.59869910E+00 -1.51973982E+01  7.59869910E+00  7.59869910E+00 -1.51973982E+01
  7.59869910E+00  7.59869910E+00 -1.51973982E+01  7.59869910E+00  7.59869910E+00
 -1.51973982E+01  7.59869910E+00  7.59869910E+00 -1.51973982E+01  7.59869910E+00
  7.59869910E+00 -1.51973982E+01  7.59869910E+00  7.59869910E+00 -1.51973982E+01
  7.59869910E+00  7.59869910E+00 -1.51973982E+01  7.59869910E+00  7.59869910E+00
 -1.51973982E+01  7.59869910E+00  7.59869910E+00 -1.51973982E+01  7.59869910E+00
  7.59869910E+00 -1.51973982E+01  7.59869910E+00  7.59869910E+00 -1.51973982E+01
  7.59869910E+00  7.59869910E+00 -1.51973982E+01  7.59869910E+00  7.59869910E+00
 -1.51973982E+01  7.59869910E+00  7.59869910E+00 -1.51973982E+01  7.59869910E+00
  7.59869910E+00 -1.51973982E+01  7.59869910E+00  7.59869910E+00 -1.51973982E+01
  7.59869910E+00  7.59869910E+00 -1.51973982E+01  7.59869910E+00  7.59869910E+00
 -1.51973982E+01  7.59869910E+00  7.59869910E+00 -1.51973982E+01  7.59869910E+00
  7.59869910E+00 -1.51973982E+01  7.59869910E+00  7.59869910E+00 -1.51973982E+01
  7.59869910E+00  7.59869910E+00 -1.51973982E+01  7.59869910E+00  7.59869910E+00
 -1.51973982E+01  7.59869910E+00  7.59869910E+00 -1.51973982E+01  7.59869910E+00
  7.59869910E+00 -1.51973982E+01  7.59869910E+00  7.59869910E+00 -1.51973982E+01
  7.59869910E+00  7.59869910E+00 -1.51973982E+01  7.59869910E+00  7.59869910E+00
 -1.51973982E+01  7.59869910E+00  7.59869910E+00 -1.51973982E+01  7.59869910E+00
  7.59869910E+00 -1.51973982E+01  7.59869910E+00  7.59869910E+00 -1.51973982E+01
  7.59869910E+00  7.59869910E+00 -1.51973982E+01  7.59869910E+00  7.59869910E+00
 -1.51973982E+01  7.59869910E+00  7.59869910E+00 -1.51973982E+01  7.59869910E+00
  7.59869910E+00 -1.51973982E+01  7.59869910E+00  7.59869910E+00 -1.51973982E+01
  7.59869910E+00  7.59869910E+00 -1.51973982E+01  7.59869910E+00  7.59869910E+00
 -1.51973982E+01  7.59869910E+00  7.59869910E+00 -1.51973982E+01  7.59869910E+00
  7.59869910E+00 -1.51973982E+01  7.59869910E+00  7.59869910E+00 -1.51973982E+01
  7.59869910E+00  7.59869910E+00 -1.51973982E+01  7.59869910E+00  7.59869910E+00
 -1.51973982E+01  7.59869910E+00  7.59869910E+00 -1.51973982E+01  7.59869910E+00
  7.59869910E+00 -1.51973982E+01  7.59869910E+00  7.59869910E+00 -1.51973982E+01
  7.59869910E+00  7.59869910E+00 -1.51973982E+01  7.59869910E+00  7.59869910E+00
 -1.51973982E+01  7.59869910E+00  7.59869910E+00 -1.51973982E+01  7.59869910E+00
  7.59869910E+00 -1.51973982E+01  7.59869910E+00  7.59869910E+00 -1.51973982E+01
  7.59869910E+00  7.59869910E+00 -1.51973982E+01  7.59869910E+00  7.59869910E+00
 -1.51973982E+01  7.59869910E+00  7.59869910E+00 -1.51973982E+01  7.59869910E+00
  7.59869910E+00 -1.51973982E+01  7.59869910E+00  7.59869910E+00 -1.51973982E+01
  7.59869910E+00  7.59869910E+00 -1.51973982E+01  7.59869910E+00  7.59869910E+00
 -1.51973982E+01  7.59869910E+00  7.59869910E+00 -1.51973982E+01  7.59869910E+00
  7.59869910E+00 -1.51973982E+01  7.59869910E+00  7.59869910E+00 -1.51973982E+01
  7.59869910E+00  7.59869910E+00 -1.51973982E+01  7.59869910E+00  7.59869910E+00
 -1.51973982E+01  7.59869910E+00  7.59869910E+00 -1.51973982E+01  7.59869910E+00
  7.59869910E+00 -1.51973982E+01  7.59869910E+00  7.59869910E+00 -1.51973982E+01
  7.59869910E+00  7.59869910E+00 -1.51973982E+01  7.59869910E+00  7.59869910E+00
 -1.51973982E+01  7.59869910E+00  7.59869910E+00 -1.51973982E+01  7.59869910E+00
  7.59869910E+00 -1.51973982E+01  7.59869910E+00  7.59869910E+00 -1.51973982E+01
  7.59869910E+00  7.59869910E+00 -1.51973982E+01  7.59869910E+00  7.59869910E+00
 -1.51973982E+01  7.59869910E+00  7.59869910E+00 -1.51973982E+01  7.59869910E+00
  7.59869910E+00 -1.51973982E+01  7.59869910E+00  7.59869910E+00 -1.51973982E+01
  7.59869910E+00  7.59869910E+00 -1.51973982E+01  7.59869910E+00  7.59869910E+00
 -1.51973982E+01  7.59869910E+00  7.59869910E+00 -1.51973982E+01  7.59869910E+00
  7.59869910E+00 -1.51973982E+01  7.59869910E+00  7.59869910E+00 -1.51973982E+01
  7.59869910E+00  7.59869910E+00 -1.51973982E+01  7.59869910E+00  7.59869910E+00
 -1.51973982E+01  7.59869910E+00  7.59869910E+00 -1.51973982E+01  7.59869910E+00
  7.59869910E+00 -1.51973982E+01  7.59869910E+00  7.59869910E+00 -1.51973982E+01
  7.59869910E+00  7.59869910E+00 -1.51973982E+01  7.59869910E+00  7.59869910E+00
 -1.51973982E+01  7.59869910E+00  7.59869910E+00 -1.51973982E+01  7.59869910E+00
  7.59869910E+00 -1.51973982E+01  7.59869910E+00  7.59869910E+00 -1.51973982E+01
  7.59869910E+00  7.59869910E+00 -1.51973982E+01  7.59869910E+00  7.59869910E+00
 -1.51973982E+01  7.59869910E+00  7.59869910E+00 -1.51973982E+01  7.59869910E+00
  7.59869910E+00 -1.51973982E+01  7.59869910E+00  7.59869910E+00 -1.51973982E+01
  7.59869910E+00  7.59869910E+00 -1.51973982E+01  7.59869910E+00  7.59869910E+00
 -1.51973982E+01  7.59869910E+00  7.59869910E+00 -1.51973982E+01  7.59869910E+00
  7.59869910E+00 -1.51973982E+01  7.59869910E+00  7.59869910E+00 -1.51973982E+01
  7.59869910E+00  7.59869910E+00 -1.51973982E+01  7.59869910E+00  7.59869910E+00
 -1.51973982E+01  7.59869910E+00  7.59869910E+00 -1.51973982E+01  7.59869910E+00
  7.59869910E+00 -1.51973982E+01  7.59869910E+00  7.59869910E+00 -1.51973982E+01
  7.59869910E+00  7.59869910E+00 -1.51973982E+01  7.59869910E+00  7.59869910E+00
 -1.51973982E+01  7.59869910E+00  7.59869910E+00 -1.51973982E+01  7.59869910E+00
  7.59869910E+00 -1.51973982E+01  7.59869910E+00  7.59869910E+00 -1.51973982E+01
  7.59869910E+00  7.59869910E+00 -1.51973982E+01  7.59869910E+00  7.59869910E+00
 -1.51973982E+01  7.59869910E+00  7.59869910E+00 -1.51973982E+01  7.59869910E+00
  7.59869910E+00 -1.51973982E+01  7.59869910E+00  7.59869910E+00 -1.51973982E+01
  7.59869910E+00  7.59869910E+00 -1.51973982E+01  7.59869910E+00  7.59869910E+00
 -1.51973982E+01  7.59869910E+00  7.59869910E+00 -1.51973982E+01  7.59869910E+00
  7.59869910E+00 -1.51973982E+01  7.59869910E+00  7.59869910E+00 -1.51973982E+01
  7.59869910E+00  7.59869910E+00 -1.51973982E+01  7.59869910E+00  7.59869910E+00
 -1.51973982E+01  7.59869910E+00  7.59869910E+00 -1.51973982E+01  7.59869910E+00
  7.59869910E+00 -1.51973982E+01  7.59869910E+00  7.59869910E+00 -1.51973982E+01
  7.59869910E+00  7.59869910E+00 -1.51973982E+01  7.59869910E+00  7.59869910E+00
 -1.51973982E+01  7.59869910E+00  7.59869910E+00 -1.51973982E+01  7.59869910E+00
  7.59869910E+00 -1.51973982E+01  7.59869910E+00  7.59869910E+00 -1.51973982E+01
  7.59869910E+00  7.59869910E+00 -1.51973982E+01  7.59869910E+00  7.59869910E+00
 -1.51973982E+01  7.59869910E+00  7.59869910E+00 -1.51973982E+01  7.59869910E+00
  7.59869910E+00 -1.51973982E+01  7.59869910E+00  7.59869910E+00 -1.51973982E+01
  7.59869910E+00  7.59869910E+00 -1.51973982E+01  7.59869910E+00  7.59869910E+00
 -1.51973982E+01  7.59869910E+00  7.59869910E+00 -1.51973982E+01  7.59869910E+00
  7.59869910E+00 -1.51973982E+01  7.59869910E+00  7.59869910E+00 -1.51973982E+01
  7.59869910E+00  7.59869910E+00 -1.51973982E+01  7.59869910E+00  7.59869910E+00
 -1.51973982E+01  7.59869910E+00  7.59869910E+00 -1.51973982E+01  7.59869910E+00
  7.59869910E+00 -1.51973982E+01  7.59869910E+00  7.59869910E+00 -1.51973982E+01
  7.59869910E+00  7.59869910E+00 -1.51973982E+01  7.59869910E+00  7.59869910E+00
 -1.51973982E+01  7.59869910E+00  7.59869910E+00 -1.51973982E+01  7.59869910E+00
  7.59869910E+00 -1.51973982E+01  7.59869910E+00  7.59869910E+00 -1.51973982E+01
  7.59869910E+00  7.59869910E+00 -1.51973982E+01  7.59869910E+00  7.59869910E+00
 -1.51973982E+01  7.59869910E+00  7.59869910E+00 -1.51973982E+01  7.59869910E+00
  7.59869910E+00 -1.51973982E+01  7.59869910E+00  7.59869910E+00 -1.51973982E+01
  7.59869910E+00  7.59869910E+00 -1.51973982E+01  7.59869910E+00  7.59869910E+00
 -1.51973982E+01  7.59869910E+00  7.59869910E+00 -1.51973982E+01  7.59869910E+00
  7.59869910E+00 -1.51973982E+01  7.59869910E+00  7.59869910E+00 -1.51973982E+01
  7.59869910E+00  7.59869910E+00 -1.51973982E+01  7.59869910E+00  7.59869910E+00
 -1.51973982E+01  7.59869910E+00  7.59869910E+00 -1.51973982E+01  7.59869910E+00
  7.59869910E+00 -1.51973982E+01  7.59869910E+00  7.59869910E+00 -1.51973982E+01
  7.59869910E+00  7.59869910E+00 -1.51973982E+01  7.59869910E+00  7.59869910E+00
 -1.51973982E+01  7.59869910E+00  7.59869910E+00 -1.51973982E+01  7.59869910E+00
  7.59869910E+00 -1.51973982E+01  7.59869910E+00  7.59869910E+00 -1.51973982E+01
  7.59869910E+00  7.59869910E+00 -1.51973982E+01  7.59869910E+00  7.59869910E+00
 -1.51973982E+01  7.59869910E+00  7.59869910E+00 -1.51973982E+01  7.59869910E+00
  7.59869910E+00 -1.51973982E+01  7.59869910E+00  7.59869910E+00 -1.51973982E+01
  7.59869910E+00  7.59869910E+00 -1.51973982E+01  7.59869910E+00  7.59869910E+00
 -1.51973982E+01  7.59869910E+00  7.59869910E+00 -1.51973982E+01  7.59869910E+00
  7.59869910E+00 -1.51973982E+01  7.59869910E+00  7.59869910E+00 -1.51973982E+01
  7.59869910E+00  7.59869910E+00 -1.51973982E+01  7.59869910E+00  7.59869910E+00
 -1.51973982E+01  7.59869910E+00  7.59869910E+00 -1.51973982E+01  7.59869910E+00
  7.59869910E+00 -1.51973982E+01  7.59869910E+00  7.59869910E+00 -1.51973982E+01
  7.59869910E+00  7.59869910E+00 -1.51973982E+01  7.59869910E+00  7.59869910E+00
 -1.51973982E+01  7.59869910E+00  7.59869910E+00 -1.51973982E+01  7.59869910E+00
  7.59869910E+00 -1.51973982E+01  7.59869910E+00  7.59869910E+00 -1.51973982E+01
  7.59869910E+00  7.59869910E+00 -1.51973982E+01  7.59869910E+00  7.59869910E+00
 -1.51973982E+01  7.59869910E+00  7.59869910E+00 -1.51973982E+01  7.59869910E+00
  7.59869910E+00 -1.51973982E+01  7.59869910E+00  7.59869910E+00 -1.51973982E+01
  7.59869910E+00  7.59869910E+00 -1.51973982E+01  7.59869910E+00  7.59869910E+00
 -1.51973982E+01  7.59869910E+00  7.59869910E+00 -1.51973982E+01  7.59869910E+00
  7.59869910E+00 -1.51973982E+01  7.59869910E+00  7.59869910E+00 -1.51973982E+01
  7.59869910E+00  7.59869910E+00 -1.51973982E+01  7.59869910E+00  7.59869910E+00
 -1.51973982E+01  7.59869910E+00  7.59869910E+00 -1.51973982E+01  7.59869910E+00
  7.59869910E+00 -1.51973982E+01  7.59869910E+00  7.59869910E+00 -1.51973982E+01
  7.59869910E+00  7.59869910E+00 -1.51973982E+01  7.59869910E+00  7.59869910E+00
 -1.51973982E+01  7.59869910E+00  7.59869910E+00 -1.51973982E+01  7.59869910E+00
  7.59869910E+00 -1.51973982E+01  7.59869910E+00  7.59869910E+00 -1.51973982E+01
  7.59869910E+00  7.59869910E+00 -1.51973982E+01  7.59869910E+00  7.59869910E+00
 -1.51973982E+01  7.59869910E+00  7.59869910E+00 -1.51973982E+01  7.59869910E+00
  7.59869910E+00 -1.51973982E+01  7.59869910E+00  7.59869910E+00 -1.51973982E+01
  7.59869910E+00  7.59869910E+00 -1.51973982E+01  7.59869910E+00  7.59869910E+00
 -1.51973982E+01  7.59869910E+00  7.59869910E+00 -1.51973982E+01  7.59869910E+00
  7.59869910E+00 -1.51973982E+01  7.59869910E+00  7.59869910E+00 -1.51973982E+01
  7.59869910E+00  7.59869910E+00 -1.51973982E+01  7.59869910E+00  7.59869910E+00
 -1.51973982E+01  7.59869910E+00  7.59869910E+00 -1.51973982E+01  7.59869910E+00
  7.59869910E+00 -1.51973982E+01  7.59869910E+00  7.59869910E+00 -1.51973982E+01
  7.59869910E+00  7.59869910E+00 -1.51973982E+01  7.59869910E+00  7.59869910E+00
 -1.51973982E+01  7.59869910E+00  7.59869910E+00 -1.51973982E+01  7.59869910E+00
  7.59869910E+00 -1.51973982E+01  7.59869910E+00  7.59869910E+00 -1.51973982E+01
  7.59869910E+00  7.59869910E+00 -1.51973982E+01  7.59869910E+00  7.59869910E+00
 -1.51973982E+01  7.59869910E+00  7.59869910E+00 -1.51973982E+01  7.59869910E+00
  7.59869910E+00 -1.51973982E+01  7.59869910E+00  7.59869910E+00 -1.51973982E+01
  7.59869910E+00  7.59869910E+00 -1.51973982E+01  7.59869910E+00  7.59869910E+00
 -1.51973982E+01  7.59869910E+00  7.59869910E+00 -1.51973982E+01  7.59869910E+00
  7.59869910E+00 -1.51973982E+01  7.59869910E+00  7.59869910E+00 -1.51973982E+01
  7.59869910E+00  7.59869910E+00 -1.51973982E+01  7.59869910E+00  7.59869910E+00
 -1.51973982E+01  7.59869910E+00  7.59869910E+00 -1.51973982E+01  7.59869910E+00
  7.59869910E+00 -1.51973982E+01  7.59869910E+00  7.59869910E+00 -1.51973982E+01
  7.59869910E+00  7.59869910E+00 -1.51973982E+01  7.59869910E+00  7.59869910E+00
 -1.51973982E+01  7.59869910E+00  7.59869910E+00 -1.51973982E+01  7.59869910E+00
  7.59869910E+00 -1.51973982E+01  7.59869910E+00  7.59869910E+00 -1.51973982E+01
  7.59869910E+00  7.59869910E+00 -1.51973982E+01  7.59869910E+00  7.59869910E+00
 -1.51973982E+01  7.59869910E+00  7.59869910E+00 -1.51973982E+01  7.59869910E+00
  7.59869910E+00 -1.51973982E+01  7.59869910E+00  7.59869910E+00 -1.51973982E+01
  7.59869910E+00  7.59869910E+00 -1.51973982E+01  7.59869910E+00  7.59869910E+00
 -1.51973982E+01  7.59869910E+00  7.59869910E+00 -1.51973982E+01  7.59869910E+00
  7.59869910E+00 -1.51973982E+01  7.59869910E+00  7.59869910E+00 -1.51973982E+01
  7.59869910E+00  7.59869910E+00 -1.51973982E+01  7.59869910E+00  7.59869910E+00
 -1.51973982E+01  7.59869910E+00  7.59869910E+00 -1.51973982E+01  7.59869910E+00
  7.59869910E+00 -1.51973982E+01  7.59869910E+00  7.59869910E+00 -1.51973982E+01
  7.59869910E+00  7.59869910E+00 -1.51973982E+01  7.59869910E+00  7.59869910E+00
 -1.51973982E+01  7.59869910E+00  7.59869910E+00 -1.51973982E+01  7.59869910E+00
  7.59869910E+00 -1.51973982E+01  7.59869910E+00  7.59869910E+00 -1.51973982E+01
  7.59869910E+00  7.59869910E+00 -1.51973982E+01  7.59869910E+00  7.59869910E+00
 -1.51973982E+01  7.59869910E+00  7.59869910E+00 -1.51973982E+01  7.59869910E+00
  7.59869910E+00 -1.51973982E+01  7.59869910E+00  7.59869910E+00 -1.51973982E+01
  7.59869910E+00  7.59869910E+00 -1.51973982E+01  7.59869910E+00  7.59869910E+00
 -1.51973982E+01  7.59869910E+00  7.59869910E+00 -1.51973982E+01  7.59869910E+00
  7.59869910E+00 -1.51973982E+01  7.59869910E+00  7.59869910E+00 -1.51973982E+01
  7.59869910E+00  7.59869910E+00 -1.51973982E+01  7.59869910E+00  7.59869910E+00
 -1.51973982E+01  7.59869910E+00  7.59869910E+00 -1.51973982E+01  7.59869910E+00
  7.59869910E+00 -1.51973982E+01  7.59869910E+00  7.59869910E+00 -1.51973982E+01
  7.59869910E+00  7.59869910E+00 -1.51973982E+01  7.59869910E+00  7.59869910E+00
 -1.51973982E+01  7.59869910E+00  7.59869910E+00 -1.51973982E+01  7.59869910E+00
  7.59869910E+00 -1.51973982E+01  7.59869910E+00  7.59869910E+00 -1.51973982E+01
  7.59869910E+00  7.59869910E+00 -1.51973982E+01  7.59869910E+00  7.59869910E+00
 -1.51973982E+01  7.59869910E+00  7.59869910E+00 -1.51973982E+01  7.59869910E+00
  7.59869910E+00 -1.51973982E+01  7.59869910E+00  7.59869910E+00 -1.51973982E+01
  7.59869910E+00  7.59869910E+00 -1.51973982E+01  7.59869910E+00  7.59869910E+00
 -1.51973982E+01  7.59869910E+00  7.59869910E+00 -1.51973982E+01  7.59869910E+00
  7.59869910E+00 -1.51973982E+01  7.59869910E+00  7.59869910E+00 -1.51973982E+01
  7.59869910E+00  7.59869910E+00 -1.51973982E+01  7.59869910E+00  7.59869910E+00
 -1.51973982E+01  7.59869910E+00  7.59869910E+00 -1.51973982E+01  7.59869910E+00
  7.59869910E+00 -1.51973982E+01  7.59869910E+00  7.59869910E+00 -1.51973982E+01
  7.59869910E+00  7.59869910E+00 -1.51973982E+01  7.59869910E+00  7.59869910E+00
 -1.51973982E+01  7.59869910E+00  7.59869910E+00 -1.51973982E+01  7.59869910E+00
  7.59869910E+00 -1.51973982E+01  7.59869910E+00  7.59869910E+00 -1.51973982E+01
  7.59869910E+00  7.59869910E+00 -1.51973982E+01  7.59869910E+00  7.59869910E+00
 -1.51973982E+01  7.59869910E+00  7.59869910E+00 -1.51973982E+01  7.59869910E+00
  7.59869910E+00 -1.51973982E+01  7.59869910E+00  7.59869910E+00 -1.51973982E+01
  7.59869910E+00  7.59869910E+00 -1.51973982E+01  7.59869910E+00  7.59869910E+00
 -1.51973982E+01  7.59869910E+00  7.59869910E+00 -1.51973982E+01  7.59869910E+00
  7.59869910E+00 -1.51973982E+01  7.59869910E+00  7.59869910E+00 -1.51973982E+01
  7.59869910E+00  7.59869910E+00 -1.51973982E+01  7.59869910E+00  7.59869910E+00
 -1.51973982E+01  7.59869910E+00  7.59869910E+00 -1.51973982E+01  7.59869910E+00
  7.59869910E+00 -1.51973982E+01  7.59869910E+00  7.59869910E+00 -1.51973982E+01
  7.59869910E+00  7.59869910E+00 -1.51973982E+01  7.59869910E+00  7.59869910E+00
 -1.51973982E+01  7.59869910E+00  7.59869910E+00 -1.51973982E+01  7.59869910E+00
  7.59869910E+00 -1.51973982E+01  7.59869910E+00  7.59869910E+00 -1.51973982E+01
  7.59869910E+00  7.59869910E+00 -1.51973982E+01  7.59869910E+00  7.59869910E+00
 -1.51973982E+01  7.59869910E+00  7.59869910E+00 -1.51973982E+01  7.59869910E+00
  7.59869910E+00 -1.51973982E+01  7.59869910E+00  7.59869910E+00 -1.51973982E+01
  7.59869910E+00  7.59869910E+00 -1.51973982E+01  7.59869910E+00  7.59869910E+00
 -1.51973982E+01  7.59869910E+00  7.59869910E+00 -1.51973982E+01  7.59869910E+00
  7.59869910E+00 -1.51973982E+01  7.59869910E+00  7.59869910E+00 -1.51973982E+01
  7.59869910E+00  7.59869910E+00 -1.51973982E+01  7.59869910E+00  7.59869910E+00
 -1.51973982E+01  7.59869910E+00  7.59869910E+00 -1.51973982E+01  7.59869910E+00
  7.59869910E+00 -1.51973982E+01  7.59869910E+00  7.59869910E+00 -1.51973982E+01
  7.59869910E+00  7.59869910E+00 -1.51973982E+01  7.59869910E+00  7.59869910E+00
 -1.51973982E+01  7.59869910E+00  7.59869910E+00 -1.51973982E+01  7.59869910E+00
  7.59869910E+00 -1.51973982E+01  7.59869910E+00  7.59869910E+00 -1.51973982E+01
  7.59869910E+00  7.59869910E+00 -1.51973982E+01  7.59869910E+00  7.59869910E+00
 -1.51973982E+01  7.59869910E+00  7.59869910E+00 -1.51973982E+01  7.59869910E+00
  7.59869910E+00 -1.51973982E+01  7.59869910E+00  7.59869910E+00 -1.51973982E+01
  7.59869910E+00  7.59869910E+00 -1.51973982E+01  7.59869910E+00  7.59869910E+00
 -1.51973982E+01  7.59869910E+00  7.59869910E+00 -1.51973982E+01  7.59869910E+00
  7.59869910E+00 -1.51973982E+01  7.59869910E+00  7.59869910E+00 -1.51973982E+01
  7.59869910E+00  7.59869910E+00 -1.51973982E+01  7.59869910E+00  7.59869910E+00
 -1.51973982E+01  7.59869910E+00  7.59869910E+00 -1.51973982E+01  7.59869910E+00
  7.59869910E+00 -1.51973982E+01  7.59869910E+00  7.59869910E+00 -1.51973982E+01
  7.59869910E+00  7.59869910E+00 -1.51973982E+01  7.59869910E+00  7.59869910E+00
 -1.51973982E+01  7.59869910E+00  7.59869910E+00 -1.51973982E+01  7.59869910E+00
  7.59869910E+00 -1.51973982E+01  7.59869910E+00  7.59869910E+00 -1.51973982E+01
  7.59869910E+00  7.59869910E+00 -1.51973982E+01  7.59869910E+00  7.59869910E+00
 -1.51973982E+01  7.59869910E+00  7.59869910E+00 -1.51973982E+01  7.59869910E+00
  7.59869910E+00 -1.51973982E+01  7.59869910E+00  7.59869910E+00 -1.51973982E+01
  7.59869910E+00  7.59869910E+00 -1.51973982E+01  7.59869910E+00  7.59869910E+00
 -1.51973982E+01  7.59869910E+00  7.59869910E+00 -1.51973982E+01  7.59869910E+00
  7.59869910E+00 -1.51973982E+01  7.59869910E+00  7.59869910E+00 -1.51973982E+01
  7.59869910E+00  7.59869910E+00 -1.51973982E+01  7.59869910E+00  7.59869910E+00
 -1.51973982E+01  7.59869910E+00  7.59869910E+00 -1.51973982E+01  7.59869910E+00
  7.59869910E+00 -1.51973982E+01  7.59869910E+00  7.59869910E+00 -1.51973982E+01
  7.59869910E+00  7.59869910E+00 -1.51973982E+01  7.59869910E+00  7.59869910E+00
 -1.51973982E+01  7.59869910E+00  7.59869910E+00 -1.51973982E+01  7.59869910E+00
  7.59869910E+00 -1.51973982E+01  7.59869910E+00  7.59869910E+00 -1.51973982E+01
  7.59869910E+00  7.59869910E+00 -1.51973982E+01  7.59869910E+00  7.59869910E+00
 -1.51973982E+01  7.59869910E+00  7.59869910E+00 -1.51973982E+01  7.59869910E+00
  7.59869910E+00 -1.51973982E+01  7.59869910E+00  7.59869910E+00 -1.51973982E+01
  7.59869910E+00  7.59869910E+00 -1.51973982E+01  7.59869910E+00  7.59869910E+00
 -1.51973982E+01  7.59869910E+00  7.59869910E+00 -1.51973982E+01  7.59869910E+00
  7.59869910E+00 -1.51973982E+01  7.59869910E+00  7.59869910E+00 -1.51973982E+01
  7.59869910E+00  7.59869910E+00 -1.51973982E+01  7.59869910E+00  7.59869910E+00
 -1.51973982E+01  7.59869910E+00  7.59869910E+00 -1.51973982E+01  7.59869910E+00
  7.59869910E+00 -1.51973982E+01  7.59869910E+00  7.59869910E+00 -1.51973982E+01
  7.59869910E+00  7.59869910E+00 -1.51973982E+01  7.59869910E+00  7.59869910E+00
 -1.51973982E+01  7.59869910E+00  7.59869910E+00 -1.51973982E+01  7.59869910E+00
  7.59869910E+00 -1.51973982E+01  7.59869910E+00  7.59869910E+00 -1.51973982E+01
  7.59869910E+00  7.59869910E+00 -1.51973982E+01  7.59869910E+00  7.59869910E+00
 -1.51973982E+01  7.59869910E+00  7.59869910E+00 -1.51973982E+01  7.59869910E+00
  7.59869910E+00 -1.51973982E+01  7.59869910E+00  7.59869910E+00 -1.51973982E+01
  7.59869910E+00  7.59869910E+00 -1.51973982E+01  7.59869910E+00  7.59869910E+00
 -1.51973982E+01  7.59869910E+00  7.59869910E+00 -1.51973982E+01  7.59869910E+00
  7.59869910E+00 -1.51973982E+01  7.59869910E+00  7.59869910E+00 -1.51973982E+01
  7.59869910E+00  7.59869910E+00 -1.51973982E+01  7.59869910E+00  7.59869910E+00
 -1.51973982E+01  7.59869910E+00  7.59869910E+00 -1.51973982E+01  7.59869910E+00
  7.59869910E+00 -1.51973982E+01  7.59869910E+00  7.59869910E+00 -1.51973982E+01
  7.59869910E+00  7.59869910E+00 -1.51973982E+01  7.59869910E+00  7.59869910E+00
 -1.51973982E+01  7.59869910E+00  7.59869910E+00 -1.51973982E+01  7.59869910E+00
  7.59869910E+00 -1.51973982E+01  7.59869910E+00  7.59869910E+00 -1.51973982E+01
  7.59869910E+00  7.59869910E+00 -1.51973982E+01  7.59869910E+00  7.59869910E+00
 -1.51973982E+01  7.59869910E+00  7.59869910E+00 -1.51973982E+01  7.59869910E+00
  7.59869910E+00 -1.51973982E+01  7.59869910E+00  7.59869910E+00 -1.51973982E+01
  7.59869910E+00  7.59869910E+00 -1.51973982E+01  7.59869910E+00  7.59869910E+00
 -1.51973982E+01  7.59869910E+00  7.59869910E+00 -1.51973982E+01  7.59869910E+00
  7.59869910E+00 -1.51973982E+01  7.59869910E+00  7.59869910E+00 -1.51973982E+01
  7.59869910E+00  7.59869910E+00 -1.51973982E+01  7.59869910E+00  7.59869910E+00
 -1.51973982E+01  7.59869910E+00  7.59869910E+00 -1.51973982E+01  7.59869910E+00
  7.59869910E+00 -1.51973982E+01  7.59869910E+00  7.59869910E+00 -1.51973982E+01
  7.59869910E+00  7.59869910E+00 -1.51973982E+01  7.59869910E+00  7.59869910E+00
 -1.51973982E+01  7.59869910E+00  7.59869910E+00 -1.51973982E+01  7.59869910E+00
  7.59869910E+00 -1.51973982E+01  7.59869910E+00  7.59869910E+00 -1.51973982E+01
  7.59869910E+00  7.59869910E+00 -1.51973982E+01  7.59869910E+00  7.59869910E+00
 -1.51973982E+01  7.59869910E+00  7.59869910E+00 -1.51973982E+01  7.59869910E+00
  7.59869910E+00 -1.51973982E+01  7.59869910E+00  7.59869910E+00 -1.51973982E+01
  7.59869910E+00  7.59869910E+00 -1.51973982E+01  7.59869910E+00  7.59869910E+00
 -1.51973982E+01  7.59869910E+00  7.59869910E+00 -1.51973982E+01  7.59869910E+00
  7.59869910E+00 -1.51973982E+01  7.59869910E+00  7.59869910E+00 -1.51973982E+01
  7.59869910E+00  7.59869910E+00 -1.51973982E+01  7.59869910E+00  7.59869910E+00
 -1.51973982E+01  7.59869910E+00  7.59869910E+00 -1.51973982E+01  7.59869910E+00
  7.59869910E+00 -1.51973982E+01  7.59869910E+00  7.59869910E+00 -1.51973982E+01
  7.59869910E+00  7.59869910E+00 -1.51973982E+01  7.59869910E+00  7.59869910E+00
 -1.51973982E+01  7.59869910E+00  7.59869910E+00 -1.51973982E+01  7.59869910E+00
  7.59869910E+00 -1.51973982E+01  7.59869910E+00  7.59869910E+00 -1.51973982E+01
  7.59869910E+00  7.59869910E+00 -1.51973982E+01  7.59869910E+00  7.59869910E+00
 -1.51973982E+01  7.59869910E+00  7.59869910E+00 -1.51973982E+01  7.59869910E+00
  7.59869910E+00 -1.51973982E+01  7.59869910E+00  7.59869910E+00 -1.51973982E+01
  7.59869910E+00  7.59869910E+00 -1.51973982E+01  7.59869910E+00  7.59869910E+00
 -1.51973982E+01  7.59869910E+00  7.59869910E+00 -1.51973982E+01  7.59869910E+00
  7.59869910E+00 -1.51973982E+01  7.59869910E+00  7.59869910E+00 -1.51973982E+01
  7.59869910E+00  7.59869910E+00 -1.51973982E+01  7.59869910E+00  7.59869910E+00
 -1.51973982E+01  7.59869910E+00  7.59869910E+00 -1.51973982E+01  7.59869910E+00
  7.59869910E+00 -1.51973982E+01  7.59869910E+00  7.59869910E+00 -1.51973982E+01
  7.59869910E+00  7.59869910E+00 -1.51973982E+01  7.59869910E+00  7.59869910E+00
 -1.51973982E+01  7.59869910E+00  7.59869910E+00 -1.51973982E+01  7.59869910E+00
  7.59869910E+00 -1.51973982E+01  7.59869910E+00  7.59869910E+00 -1.51973982E+01
  7.59869910E+00  7.59869910E+00 -1.51973982E+01  7.59869910E+00  7.59869910E+00
 -1.51973982E+01  7.59869910E+00  7.59869910E+00 -1.51973982E+01  7.59869910E+00
  7.59869910E+00 -1.51973982E+01  7.59869910E+00  7.59869910E+00 -1.51973982E+01
  7.59869910E+00  7.59869910E+00 -1.51973982E+01  7.59869910E+00  7.59869910E+00
 -1.51973982E+01  7.59869910E+00  7.59869910E+00 -1.51973982E+01  7.59869910E+00
  7.59869910E+00 -1.51973982E+01  7.59869910E+00  7.59869910E+00 -1.51973982E+01
  7.59869910E+00  7.59869910E+00 -1.51973982E+01  7.59869910E+00  7.59869910E+00
 -1.51973982E+01  7.59869910E+00  7.59869910E+00 -1.51973982E+01  7.59869910E+00
  7.59869910E+00 -1.51973982E+01  7.59869910E+00  7.59869910E+00 -1.51973982E+01
  7.59869910E+00  7.59869910E+00 -1.51973982E+01  7.59869910E+00  7.59869910E+00
 -1.51973982E+01  7.59869910E+00  7.59869910E+00 -1.51973982E+01  7.59869910E+00
  7.59869910E+00 -1.51973982E+01  7.59869910E+00  7.59869910E+00 -1.51973982E+01
  7.59869910E+00  7.59869910E+00 -1.51973982E+01  7.59869910E+00  7.59869910E+00
 -1.51973982E+01  7.59869910E+00  7.59869910E+00 -1.51973982E+01  7.59869910E+00
  7.59869910E+00 -1.51973982E+01  7.59869910E+00  7.59869910E+00 -1.51973982E+01
  7.59869910E+00  7.59869910E+00 -1.51973982E+01  7.59869910E+00  7.59869910E+00
 -1.51973982E+01  7.59869910E+00  7.59869910E+00 -1.51973982E+01  7.59869910E+00
  7.59869910E+00 -1.51973982E+01  7.59869910E+00  7.59869910E+00 -1.51973982E+01
  7.59869910E+00  7.59869910E+00 -1.51973982E+01  7.59869910E+00  7.59869910E+00
 -1.51973982E+01  7.59869910E+00  7.59869910E+00 -1.51973982E+01  7.59869910E+00
  7.59869910E+00 -1.51973982E+01  7.59869910E+00  7.59869910E+00 -1.51973982E+01
  7.59869910E+00  7.59869910E+00 -1.51973982E+01  7.59869910E+00  7.59869910E+00
 -1.51973982E+01  7.59869910E+00  7.59869910E+00 -1.51973982E+01  7.59869910E+00
  7.59869910E+00 -1.51973982E+01  7.59869910E+00  7.59869910E+00 -1.51973982E+01
  7.59869910E+00  7.59869910E+00 -1.51973982E+01  7.59869910E+00  7.59869910E+00
 -1.51973982E+01  7.59869910E+00  7.59869910E+00 -1.51973982E+01  7.59869910E+00
  7.59869910E+00 -1.51973982E+01  7.59869910E+00  7.59869910E+00 -1.51973982E+01
  7.59869910E+00  7.59869910E+00 -1.51973982E+01  7.59869910E+00  7.59869910E+00
 -1.51973982E+01  7.59869910E+00  7.59869910E+00 -1.51973982E+01  7.59869910E+00
  7.59869910E+00 -1.51973982E+01  7.59869910E+00  7.59869910E+00 -1.51973982E+01
  7.59869910E+00  7.59869910E+00 -1.51973982E+01  7.59869910E+00  7.59869910E+00
 -1.51973982E+01  7.59869910E+00  7.59869910E+00 -1.51973982E+01  7.59869910E+00
  7.59869910E+00 -1.51973982E+01  7.59869910E+00  7.59869910E+00 -1.51973982E+01
  7.59869910E+00  7.59869910E+00 -1.51973982E+01  7.59869910E+00  7.59869910E+00
 -1.51973982E+01  7.59869910E+00  7.59869910E+00 -1.51973982E+01  7.59869910E+00
  7.59869910E+00 -1.51973982E+01  7.59869910E+00  7.59869910E+00 -1.51973982E+01
  7.59869910E+00  7.59869910E+00 -1.51973982E+01  7.59869910E+00  7.59869910E+00
 -1.51973982E+01  7.59869910E+00  7.59869910E+00 -1.51973982E+01  7.59869910E+00
  7.59869910E+00 -1.51973982E+01  7.59869910E+00  7.59869910E+00 -1.51973982E+01
  7.59869910E+00  7.59869910E+00 -1.51973982E+01  7.59869910E+00  7.59869910E+00
 -1.51973982E+01  7.59869910E+00  7.59869910E+00 -1.51973982E+01  7.59869910E+00
  7.59869910E+00 -1.51973982E+01  7.59869910E+00  7.59869910E+00 -1.51973982E+01
  7.59869910E+00  7.59869910E+00 -1.51973982E+01  7.59869910E+00  7.59869910E+00
 -1.51973982E+01  7.59869910E+00  7.59869910E+00 -1.51973982E+01  7.59869910E+00
  7.59869910E+00 -1.51973982E+01  7.59869910E+00  7.59869910E+00 -1.51973982E+01
  7.59869910E+00  7.59869910E+00 -1.51973982E+01  7.59869910E+00  7.59869910E+00
 -1.51973982E+01  7.59869910E+00  7.59869910E+00 -1.51973982E+01  7.59869910E+00
  7.59869910E+00 -1.51973982E+01  7.59869910E+00  7.59869910E+00 -1.51973982E+01
  7.59869910E+00  7.59869910E+00 -1.51973982E+01  7.59869910E+00  7.59869910E+00
 -1.51973982E+01  7.59869910E+00  7.59869910E+00 -1.51973982E+01  7.59869910E+00
  7.59869910E+00 -1.51973982E+01  7.59869910E+00  7.59869910E+00 -1.51973982E+01
  7.59869910E+00  7.59869910E+00 -1.51973982E+01  7.59869910E+00  7.59869910E+00
 -1.51973982E+01  7.59869910E+00  7.59869910E+00 -1.51973982E+01  7.59869910E+00
  7.59869910E+00 -1.51973982E+01  7.59869910E+00  7.59869910E+00 -1.51973982E+01
  7.59869910E+00  7.59869910E+00 -1.51973982E+01  7.59869910E+00  7.59869910E+00
 -1.51973982E+01  7.59869910E+00  7.59869910E+00 -1.51973982E+01  7.59869910E+00
  7.59869910E+00 -1.51973982E+01  7.59869910E+00  7.59869910E+00 -1.51973982E+01
  7.59869910E+00  7.59869910E+00 -1.51973982E+01  7.59869910E+00  7.59869910E+00
 -1.51973982E+01  7.59869910E+00  7.59869910E+00 -1.51973982E+01  7.59869910E+00
  7.59869910E+00 -1.51973982E+01  7.59869910E+00  7.59869910E+00 -1.51973982E+01
  7.59869910E+00  7.59869910E+00 -1.51973982E+01  7.59869910E+00  7.59869910E+00
 -1.51973982E+01  7.59869910E+00  7.59869910E+00 -1.51973982E+01  7.59869910E+00
  7.59869910E+00 -1.51973982E+01  7.59869910E+00  7.59869910E+00 -1.51973982E+01
  7.59869910E+00  7.59869910E+00 -1.51973982E+01  7.59869910E+00  7.59869910E+00
 -1.51973982E+01  7.59869910E+00  7.59869910E+00 -1.51973982E+01  7.59869910E+00
  7.59869910E+00 -1.51973982E+01  7.59869910E+00  7.59869910E+00 -1.51973982E+01
  7.59869910E+00  7.59869910E+00 -1.51973982E+01  7.59869910E+00  7.59869910E+00
 -1.51973982E+01  7.59869910E+00  7.59869910E+00 -1.51973982E+01  7.59869910E+00
  7.59869910E+00 -1.51973982E+01  7.59869910E+00  7.59869910E+00 -1.51973982E+01
  7.59869910E+00  7.59869910E+00 -1.51973982E+01  7.59869910E+00  7.59869910E+00
 -1.51973982E+01  7.59869910E+00  7.59869910E+00 -1.51973982E+01  7.59869910E+00
  7.59869910E+00 -1.51973982E+01  7.59869910E+00  7.59869910E+00 -1.51973982E+01
  7.59869910E+00  7.59869910E+00 -1.51973982E+01  7.59869910E+00  7.59869910E+00
 -1.51973982E+01  7.59869910E+00  7.59869910E+00 -1.51973982E+01  7.59869910E+00
  7.59869910E+00 -1.51973982E+01  7.59869910E+00  7.59869910E+00 -1.51973982E+01
  7.59869910E+00  7.59869910E+00 -1.51973982E+01  7.59869910E+00  7.59869910E+00
 -1.51973982E+01  7.59869910E+00  7.59869910E+00 -1.51973982E+01  7.59869910E+00
  7.59869910E+00 -1.51973982E+01  7.59869910E+00  7.59869910E+00 -1.51973982E+01
  7.59869910E+00  7.59869910E+00 -1.51973982E+01  7.59869910E+00  7.59869910E+00
 -1.51973982E+01  7.59869910E+00  7.59869910E+00 -1.51973982E+01  7.59869910E+00
  7.59869910E+00 -1.51973982E+01  7.59869910E+00  7.59869910E+00 -1.51973982E+01
  7.59869910E+00  7.59869910E+00 -1.51973982E+01  7.59869910E+00  7.59869910E+00
 -1.51973982E+01  7.59869910E+00  7.59869910E+00 -1.51973982E+01  7.59869910E+00
  7.59869910E+00 -1.51973982E+01  7.59869910E+00  7.59869910E+00 -1.51973982E+01
  7.59869910E+00  7.59869910E+00 -1.51973982E+01  7.59869910E+00  7.59869910E+00
 -1.51973982E+01  7.59869910E+00  7.59869910E+00 -1.51973982E+01  7.59869910E+00
  7.59869910E+00 -1.51973982E+01  7.59869910E+00  7.59869910E+00 -1.51973982E+01
  7.59869910E+00  7.59869910E+00 -1.51973982E+01  7.59869910E+00  7.59869910E+00
 -1.51973982E+01  7.59869910E+00  7.59869910E+00 -1.51973982E+01  7.59869910E+00
  7.59869910E+00 -1.51973982E+01  7.59869910E+00  7.59869910E+00 -1.51973982E+01
  7.59869910E+00  7.59869910E+00 -1.51973982E+01  7.59869910E+00  7.59869910E+00
 -1.51973982E+01  7.59869910E+00  7.59869910E+00 -1.51973982E+01  7.59869910E+00
  7.59869910E+00 -1.51973982E+01  7.59869910E+00  7.59869910E+00 -1.51973982E+01
  7.59869910E+00  7.59869910E+00 -1.51973982E+01  7.59869910E+00  7.59869910E+00
 -1.51973982E+01  7.59869910E+00  7.59869910E+00 -1.51973982E+01  7.59869910E+00
  7.59869910E+00 -1.51973982E+01  7.59869910E+00  7.59869910E+00 -1.51973982E+01
  7.59869910E+00  7.59869910E+00 -1.51973982E+01  7.59869910E+00  7.59869910E+00
 -1.51973982E+01  7.59869910E+00  7.59869910E+00 -1.51973982E+01  7.59869910E+00
  7.59869910E+00 -1.51973982E+01  7.59869910E+00  7.59869910E+00 -1.51973982E+01
  7.59869910E+00  7.59869910E+00 -1.51973982E+01  7.59869910E+00  7.59869910E+00
 -1.51973982E+01  7.59869910E+00  7.59869910E+00 -1.51973982E+01  7.59869910E+00
  7.59869910E+00 -1.51973982E+01  7.59869910E+00  7.59869910E+00 -1.51973982E+01
  7.59869910E+00  7.59869910E+00 -1.51973982E+01  7.59869910E+00  7.59869910E+00
 -1.51973982E+01  7.59869910E+00  7.59869910E+00 -1.51973982E+01  7.59869910E+00
  7.59869910E+00 -1.51973982E+01  7.59869910E+00  7.59869910E+00 -1.51973982E+01
  7.59869910E+00  7.59869910E+00 -1.51973982E+01  7.59869910E+00  7.59869910E+00
 -1.51973982E+01  7.59869910E+00  7.59869910E+00 -1.51973982E+01  7.59869910E+00
  7.59869910E+00 -1.51973982E+01  7.59869910E+00  7.59869910E+00 -1.51973982E+01
  7.59869910E+00  7.59869910E+00 -1.51973982E+01  7.59869910E+00  7.59869910E+00
 -1.51973982E+01  7.59869910E+00  7.59869910E+00 -1.51973982E+01  7.59869910E+00
  7.59869910E+00 -1.51973982E+01  7.59869910E+00  7.59869910E+00 -1.51973982E+01
  7.59869910E+00  7.59869910E+00 -1.51973982E+01  7.59869910E+00  7.59869910E+00
 -1.51973982E+01  7.59869910E+00  7.59869910E+00 -1.51973982E+01  7.59869910E+00
  7.59869910E+00 -1.51973982E+01  7.59869910E+00  7.59869910E+00 -1.51973982E+01
  7.59869910E+00  7.59869910E+00 -1.51973982E+01  7.59869910E+00  7.59869910E+00
 -1.51973982E+01  7.59869910E+00  7.59869910E+00 -1.51973982E+01  7.59869910E+00
  7.59869910E+00 -1.51973982E+01  7.59869910E+00  7.59869910E+00 -1.51973982E+01
  7.59869910E+00  7.59869910E+00 -1.51973982E+01  7.59869910E+00  7.59869910E+00
 -1.51973982E+01  7.59869910E+00  7.59869910E+00 -1.51973982E+01  7.59869910E+00
  7.59869910E+00 -1.51973982E+01  7.59869910E+00  7.59869910E+00 -1.51973982E+01
  7.59869910E+00  7.59869910E+00 -1.51973982E+01  7.59869910E+00  7.59869910E+00
 -1.51973982E+01  7.59869910E+00  7.59869910E+00 -1.51973982E+01  7.59869910E+00
  7.59869910E+00 -1.51973982E+01  7.59869910E+00  7.59869910E+00 -1.51973982E+01
  7.59869910E+00  7.59869910E+00 -1.51973982E+01  7.59869910E+00  7.59869910E+00
 -1.51973982E+01  7.59869910E+00  7.59869910E+00 -1.51973982E+01  7.59869910E+00
  7.59869910E+00 -1.51973982E+01  7.59869910E+00  7.59869910E+00 -1.51973982E+01
  7.59869910E+00  7.59869910E+00 -1.51973982E+01  7.59869910E+00  7.59869910E+00
 -1.51973982E+01  7.59869910E+00  7.59869910E+00 -1.51973982E+01  7.59869910E+00
  7.59869910E+00 -1.51973982E+01  7.59869910E+00  7.59869910E+00 -1.51973982E+01
  7.59869910E+00  7.59869910E+00 -1.51973982E+01  7.59869910E+00  7.59869910E+00
 -1.51973982E+01  7.59869910E+00  7.59869910E+00 -1.51973982E+01  7.59869910E+00
  7.59869910E+00 -1.51973982E+01  7.59869910E+00  7.59869910E+00 -1.51973982E+01
  7.59869910E+00  7.59869910E+00 -1.51973982E+01  7.59869910E+00  7.59869910E+00
 -1.51973982E+01  7.59869910E+00  7.59869910E+00 -1.51973982E+01  7.59869910E+00
  7.59869910E+00 -1.51973982E+01  7.59869910E+00  7.59869910E+00 -1.51973982E+01
  7.59869910E+00  7.59869910E+00 -1.51973982E+01  7.59869910E+00  7.59869910E+00
 -1.51973982E+01  7.59869910E+00  7.59869910E+00 -1.51973982E+01  7.59869910E+00
  7.59869910E+00 -1.51973982E+01  7.59869910E+00  7.59869910E+00 -1.51973982E+01
  7.59869910E+00  7.59869910E+00 -1.51973982E+01  7.59869910E+00  7.59869910E+00
 -1.51973982E+01  7.59869910E+00  7.59869910E+00 -1.51973982E+01  7.59869910E+00
  7.59869910E+00 -1.51973982E+01  7.59869910E+00  7.59869910E+00 -1.51973982E+01
  7.59869910E+00  7.59869910E+00 -1.51973982E+01  7.59869910E+00  7.59869910E+00
 -1.51973982E+01  7.59869910E+00  7.59869910E+00 -1.51973982E+01  7.59869910E+00
  7.59869910E+00 -1.51973982E+01  7.59869910E+00  7.59869910E+00 -1.51973982E+01
  7.59869910E+00  7.59869910E+00 -1.51973982E+01  7.59869910E+00  7.59869910E+00
 -1.51973982E+01  7.59869910E+00  7.59869910E+00 -1.51973982E+01  7.59869910E+00
  7.59869910E+00 -1.51973982E+01  7.59869910E+00  7.59869910E+00 -1.51973982E+01
  7.59869910E+00  7.59869910E+00 -1.51973982E+01  7.59869910E+00  7.59869910E+00
 -1.51973982E+01  7.59869910E+00  7.59869910E+00 -1.51973982E+01  7.59869910E+00
  7.59869910E+00 -1.51973982E+01  7.59869910E+00  7.59869910E+00 -1.51973982E+01
  7.59869910E+00  7.59869910E+00 -1.51973982E+01  7.59869910E+00  7.59869910E+00
 -1.51973982E+01  7.59869910E+00  7.59869910E+00 -1.51973982E+01  7.59869910E+00
  7.59869910E+00 -1.51973982E+01  7.59869910E+00  7.59869910E+00 -1.51973982E+01
  7.59869910E+00  7.59869910E+00 -1.51973982E+01  7.59869910E+00  7.59869910E+00
 -1.51973982E+01  7.59869910E+00  7.59869910E+00 -1.51973982E+01  7.59869910E+00
  7.59869910E+00 -1.51973982E+01  7.59869910E+00  7.59869910E+00 -1.51973982E+01
  7.59869910E+00  7.59869910E+00 -1.51973982E+01  7.59869910E+00  7.59869910E+00
 -1.51973982E+01  7.59869910E+00  7.59869910E+00 -1.51973982E+01  7.59869910E+00
  7.59869910E+00 -1.51973982E+01  7.59869910E+00  7.59869910E+00 -1.51973982E+01
  7.59869910E+00  7.59869910E+00 -1.51973982E+01  7.59869910E+00  7.59869910E+00
 -1.51973982E+01  7.59869910E+00  7.59869910E+00 -1.51973982E+01  7.59869910E+00
  7.59869910E+00 -1.51973982E+01  7.59869910E+00  7.59869910E+00 -1.51973982E+01
  7.59869910E+00  7.59869910E+00 -1.51973982E+01  7.59869910E+00  7.59869910E+00
 -1.51973982E+01  7.59869910E+00  7.59869910E+00 -1.51973982E+01  7.59869910E+00
  7.59869910E+00 -1.51973982E+01  7.59869910E+00  7.59869910E+00 -1.51973982E+01
  7.59869910E+00  7.59869910E+00 -1.51973982E+01  7.59869910E+00  7.59869910E+00
 -1.51973982E+01  7.59869910E+00  7.59869910E+00 -1.51973982E+01  7.59869910E+00
  7.59869910E+00 -1.51973982E+01  7.59869910E+00  7.59869910E+00 -1.51973982E+01
  7.59869910E+00  7.59869910E+00 -1.51973982E+01  7.59869910E+00  7.59869910E+00
 -1.51973982E+01  7.59869910E+00  7.59869910E+00 -1.51973982E+01  7.59869910E+00
  7.59869910E+00 -1.51973982E+01  7.59869910E+00  7.59869910E+00 -1.51973982E+01
  7.59869910E+00  7.59869910E+00 -1.51973982E+01  7.59869910E+00  7.59869910E+00
 -1.51973982E+01  7.59869910E+00  7.59869910E+00 -1.51973982E+01  7.59869910E+00
  7.59869910E+00 -1.51973982E+01  7.59869910E+00  7.59869910E+00 -1.51973982E+01
  7.59869910E+00  7.59869910E+00 -1.51973982E+01  7.59869910E+00  7.59869910E+00
 -1.51973982E+01  7.59869910E+00  7.59869910E+00 -1.51973982E+01  7.59869910E+00
  7.59869910E+00 -1.51973982E+01  7.59869910E+00  7.59869910E+00 -1.51973982E+01
  7.59869910E+00  7.59869910E+00 -1.51973982E+01  7.59869910E+00  7.59869910E+00
 -1.51973982E+01  7.59869910E+00  7.59869910E+00 -1.51973982E+01  7.59869910E+00
  7.59869910E+00 -1.51973982E+01  7.59869910E+00  7.59869910E+00 -1.51973982E+01
  7.59869910E+00  7.59869910E+00 -1.51973982E+01  7.59869910E+00  7.59869910E+00
 -1.51973982E+01  7.59869910E+00  7.59869910E+00 -1.51973982E+01  7.59869910E+00
  7.59869910E+00 -1.51973982E+01  7.59869910E+00  7.59869910E+00 -1.51973982E+01
  7.59869910E+00  7.59869910E+00 -1.51973982E+01  7.59869910E+00  7.59869910E+00
 -1.51973982E+01  7.59869910E+00  7.59869910E+00 -1.51973982E+01  7.59869910E+00
  7.59869910E+00 -1.51973982E+01  7.59869910E+00  7.59869910E+00 -1.51973982E+01
  7.59869910E+00  7.59869910E+00 -1.51973982E+01  7.59869910E+00  7.59869910E+00
 -1.51973982E+01  7.59869910E+00  7.59869910E+00 -1.51973982E+01  7.59869910E+00
  7.59869910E+00 -1.51973982E+01  7.59869910E+00  7.59869910E+00 -1.51973982E+01
  7.59869910E+00  7.59869910E+00 -1.51973982E+01  7.59869910E+00  7.59869910E+00
 -1.51973982E+01  7.59869910E+00  7.59869910E+00 -1.51973982E+01  7.59869910E+00
  7.59869910E+00 -1.51973982E+01  7.59869910E+00  7.59869910E+00 -1.51973982E+01
  7.59869910E+00  7.59869910E+00 -1.51973982E+01  7.59869910E+00  7.59869910E+00
 -1.51973982E+01  7.59869910E+00  7.59869910E+00 -1.51973982E+01  7.59869910E+00
  7.59869910E+00 -1.51973982E+01  7.59869910E+00  7.59869910E+00 -1.51973982E+01
  7.59869910E+00  7.59869910E+00 -1.51973982E+01  7.59869910E+00  7.59869910E+00
 -1.51973982E+01  7.59869910E+00  7.59869910E+00 -1.51973982E+01  7.59869910E+00
  7.59869910E+00 -1.51973982E+01  7.59869910E+00  7.59869910E+00 -1.51973982E+01
  7.59869910E+00  7.59869910E+00 -1.51973982E+01  7.59869910E+00  7.59869910E+00
 -1.51973982E+01  7.59869910E+00  7.59869910E+00 -1.51973982E+01  7.59869910E+00
  7.59869910E+00 -1.51973982E+01  7.59869910E+00  7.59869910E+00 -1.51973982E+01
  7.59869910E+00  7.59869910E+00 -1.51973982E+01  7.59869910E+00  7.59869910E+00
 -1.51973982E+01  7.59869910E+00  7.59869910E+00 -1.51973982E+01  7.59869910E+00
  7.59869910E+00 -1.51973982E+01  7.59869910E+00  7.59869910E+00 -1.51973982E+01
  7.59869910E+00  7.59869910E+00 -1.51973982E+01  7.59869910E+00  7.59869910E+00
 -1.51973982E+01  7.59869910E+00  7.59869910E+00 -1.51973982E+01  7.59869910E+00
  7.59869910E+00 -1.51973982E+01  7.59869910E+00  7.59869910E+00 -1.51973982E+01
  7.59869910E+00  7.59869910E+00 -1.51973982E+01  7.59869910E+00  7.59869910E+00
 -1.51973982E+01  7.59869910E+00  7.59869910E+00 -1.51973982E+01  7.59869910E+00
  7.59869910E+00 -1.51973982E+01  7.59869910E+00  7.59869910E+00 -1.51973982E+01
  7.59869910E+00  7.59869910E+00 -1.51973982E+01  7.59869910E+00  7.59869910E+00
 -1.51973982E+01  7.59869910E+00  7.59869910E+00 -1.51973982E+01  7.59869910E+00
  7.59869910E+00 -1.51973982E+01  7.59869910E+00  7.59869910E+00 -1.51973982E+01
  7.59869910E+00  7.59869910E+00 -1.51973982E+01  7.59869910E+00  7.59869910E+00
 -1.51973982E+01  7.59869910E+00  7.59869910E+00 -1.51973982E+01  7.59869910E+00
  7.59869910E+00 -1.51973982E+01  7.59869910E+00  7.59869910E+00 -1.51973982E+01
  7.59869910E+00  7.59869910E+00 -1.51973982E+01  7.59869910E+00  7.59869910E+00
 -1.51973982E+01  7.59869910E+00  7.59869910E+00 -1.51973982E+01  7.59869910E+00
  7.59869910E+00 -1.51973982E+01  7.59869910E+00  7.59869910E+00 -1.51973982E+01
  7.59869910E+00  7.59869910E+00 -1.51973982E+01  7.59869910E+00  7.59869910E+00
 -1.51973982E+01  7.59869910E+00  7.59869910E+00 -1.51973982E+01  7.59869910E+00
  7.59869910E+00 -1.51973982E+01  7.59869910E+00  7.59869910E+00 -1.51973982E+01
  7.59869910E+00  7.59869910E+00 -1.51973982E+01  7.59869910E+00  7.59869910E+00
 -1.51973982E+01  7.59869910E+00  7.59869910E+00 -1.51973982E+01  7.59869910E+00
  7.59869910E+00 -1.51973982E+01  7.59869910E+00  7.59869910E+00 -1.51973982E+01
  7.59869910E+00  7.59869910E+00 -1.51973982E+01  7.59869910E+00  7.59869910E+00
 -1.51973982E+01  7.59869910E+00  7.59869910E+00 -1.51973982E+01  7.59869910E+00
  7.59869910E+00 -1.51973982E+01  7.59869910E+00  7.59869910E+00 -1.51973982E+01
  7.59869910E+00  7.59869910E+00 -1.51973982E+01  7.59869910E+00  7.59869910E+00
 -1.51973982E+01  7.59869910E+00  7.59869910E+00 -1.51973982E+01  7.59869910E+00
  7.59869910E+00 -1.51973982E+01  7.59869910E+00  7.59869910E+00 -1.51973982E+01
  7.59869910E+00  7.59869910E+00 -1.51973982E+01  7.59869910E+00  7.59869910E+00
 -1.51973982E+01  7.59869910E+00  7.59869910E+00 -1.51973982E+01  7.59869910E+00
  7.59869910E+00 -1.51973982E+01  7.59869910E+00  7.59869910E+00 -1.51973982E+01
  7.59869910E+00  7.59869910E+00 -1.51973982E+01  7.59869910E+00  7.59869910E+00
 -1.51973982E+01  7.59869910E+00  7.59869910E+00 -1.51973982E+01  7.59869910E+00
  7.59869910E+00 -1.51973982E+01  7.59869910E+00  7.59869910E+00 -1.51973982E+01
  7.59869910E+00  7.59869910E+00 -1.51973982E+01  7.59869910E+00  7.59869910E+00
 -1.51973982E+01  7.59869910E+00  7.59869910E+00 -1.51973982E+01  7.59869910E+00
  7.59869910E+00 -1.51973982E+01  7.59869910E+00  7.59869910E+00 -1.51973982E+01
  7.59869910E+00  7.59869910E+00 -1.51973982E+01  7.59869910E+00  7.59869910E+00
 -1.51973982E+01  7.59869910E+00  7.59869910E+00 -1.51973982E+01  7.59869910E+00
  7.59869910E+00 -1.51973982E+01  7.59869910E+00  7.59869910E+00 -1.51973982E+01
  7.59869910E+00  7.59869910E+00 -1.51973982E+01  7.59869910E+00  7.59869910E+00
 -1.51973982E+01  7.59869910E+00  7.59869910E+00 -1.51973982E+01  7.59869910E+00
  7.59869910E+00 -1.51973982E+01  7.59869910E+00  7.59869910E+00 -1.51973982E+01
  7.59869910E+00  7.59869910E+00 -1.51973982E+01  7.59869910E+00  7.59869910E+00
 -1.51973982E+01  7.59869910E+00  7.59869910E+00 -1.51973982E+01  7.59869910E+00
  7.59869910E+00 -1.51973982E+01  7.59869910E+00  7.59869910E+00 -1.51973982E+01
  7.59869910E+00  7.59869910E+00 -1.51973982E+01  7.59869910E+00  7.59869910E+00
 -1.51973982E+01  7.59869910E+00  7.59869910E+00 -1.51973982E+01  7.59869910E+00
  7.59869910E+00 -1.51973982E+01  7.59869910E+00  7.59869910E+00 -1.51973982E+01
  7.59869910E+00  7.59869910E+00 -1.51973982E+01  7.59869910E+00  7.59869910E+00
 -1.51973982E+01  7.59869910E+00  7.59869910E+00 -1.51973982E+01  7.59869910E+00
  7.59869910E+00 -1.51973982E+01  7.59869910E+00  7.59869910E+00 -1.51973982E+01
  7.59869910E+00  7.59869910E+00 -1.51973982E+01  7.59869910E+00  7.59869910E+00
 -1.51973982E+01  7.59869910E+00  7.59869910E+00 -1.51973982E+01  7.59869910E+00
  7.59869910E+00 -1.51973982E+01  7.59869910E+00  7.59869910E+00 -1.51973982E+01
  7.59869910E+00  7.59869910E+00 -1.51973982E+01  7.59869910E+00  7.59869910E+00
 -1.51973982E+01  7.59869910E+00  7.59869910E+00 -1.51973982E+01  7.59869910E+00
  7.59869910E+00 -1.51973982E+01  7.59869910E+00  7.59869910E+00 -1.51973982E+01
  7.59869910E+00  7.59869910E+00 -1.51973982E+01  7.59869910E+00  7.59869910E+00
 -1.51973982E+01  7.59869910E+00  7.59869910E+00 -1.51973982E+01  7.59869910E+00
  7.59869910E+00 -1.51973982E+01  7.59869910E+00  7.59869910E+00 -1.51973982E+01
  7.59869910E+00  7.59869910E+00 -1.51973982E+01  7.59869910E+00  7.59869910E+00
 -1.51973982E+01  7.59869910E+00  7.59869910E+00 -1.51973982E+01  7.59869910E+00
  7.59869910E+00 -1.51973982E+01  7.59869910E+00  7.59869910E+00 -1.51973982E+01
  7.59869910E+00  7.59869910E+00 -1.51973982E+01  7.59869910E+00  7.59869910E+00
 -1.51973982E+01  7.59869910E+00  7.59869910E+00 -1.51973982E+01  7.59869910E+00
  7.59869910E+00 -1.51973982E+01  7.59869910E+00  7.59869910E+00 -1.51973982E+01
  7.59869910E+00  7.59869910E+00 -1.51973982E+01  7.59869910E+00  7.59869910E+00
 -1.51973982E+01  7.59869910E+00  7.59869910E+00 -1.51973982E+01  7.59869910E+00
  7.59869910E+00 -1.51973982E+01  7.59869910E+00  7.59869910E+00 -1.51973982E+01
  7.59869910E+00  7.59869910E+00 -1.51973982E+01  7.59869910E+00  7.59869910E+00
 -1.51973982E+01  7.59869910E+00  7.59869910E+00 -1.51973982E+01  7.59869910E+00
  7.59869910E+00 -1.51973982E+01  7.59869910E+00  7.59869910E+00 -1.51973982E+01
  7.59869910E+00  7.59869910E+00 -1.51973982E+01  7.59869910E+00  7.59869910E+00
 -1.51973982E+01  7.59869910E+00  7.59869910E+00 -1.51973982E+01  7.59869910E+00
  7.59869910E+00 -1.51973982E+01  7.59869910E+00  7.59869910E+00 -1.51973982E+01
  7.59869910E+00  7.59869910E+00 -1.51973982E+01  7.59869910E+00  7.59869910E+00
 -1.51973982E+01  7.59869910E+00  7.59869910E+00 -1.51973982E+01  7.59869910E+00
  7.59869910E+00 -1.51973982E+01  7.59869910E+00  7.59869910E+00 -1.51973982E+01
  7.59869910E+00  7.59869910E+00 -1.51973982E+01  7.59869910E+00  7.59869910E+00
 -1.51973982E+01  7.59869910E+00  7.59869910E+00 -1.51973982E+01  7.59869910E+00
  7.59869910E+00 -1.51973982E+01  7.59869910E+00  7.59869910E+00 -1.51973982E+01
  7.59869910E+00  7.59869910E+00 -1.51973982E+01  7.59869910E+00  7.59869910E+00
 -1.51973982E+01  7.59869910E+00  7.59869910E+00 -1.51973982E+01  7.59869910E+00
  7.59869910E+00 -1.51973982E+01  7.59869910E+00  7.59869910E+00 -1.51973982E+01
  7.59869910E+00  7.59869910E+00 -1.51973982E+01  7.59869910E+00  7.59869910E+00
 -1.51973982E+01  7.59869910E+00  7.59869910E+00 -1.51973982E+01  7.59869910E+00
  7.59869910E+00 -1.51973982E+01  7.59869910E+00  7.59869910E+00 -1.51973982E+01
  7.59869910E+00  7.59869910E+00 -1.51973982E+01  7.59869910E+00  7.59869910E+00
 -1.51973982E+01  7.59869910E+00  7.59869910E+00 -1.51973982E+01  7.59869910E+00
  7.59869910E+00 -1.51973982E+01  7.59869910E+00  7.59869910E+00 -1.51973982E+01
  7.59869910E+00  7.59869910E+00 -1.51973982E+01  7.59869910E+00  7.59869910E+00
 -1.51973982E+01  7.59869910E+00  7.59869910E+00 -1.51973982E+01  7.59869910E+00
  7.59869910E+00 -1.51973982E+01  7.59869910E+00  7.59869910E+00 -1.51973982E+01
  7.59869910E+00  7.59869910E+00 -1.51973982E+01  7.59869910E+00  7.59869910E+00
 -1.51973982E+01  7.59869910E+00  7.59869910E+00 -1.51973982E+01  7.59869910E+00
  7.59869910E+00 -1.51973982E+01  7.59869910E+00  7.59869910E+00 -1.51973982E+01
  7.59869910E+00  7.59869910E+00 -1.51973982E+01  7.59869910E+00  7.59869910E+00
 -1.51973982E+01  7.59869910E+00  7.59869910E+00 -1.51973982E+01  7.59869910E+00
  7.59869910E+00 -1.51973982E+01  7.59869910E+00  7.59869910E+00 -1.51973982E+01
  7.59869910E+00  7.59869910E+00 -1.51973982E+01  7.59869910E+00  7.59869910E+00
 -1.51973982E+01  7.59869910E+00  7.59869910E+00 -1.51973982E+01  7.59869910E+00
  7.59869910E+00 -1.51973982E+01  7.59869910E+00  7.59869910E+00 -1.51973982E+01
  7.59869910E+00  7.59869910E+00 -1.51973982E+01  7.59869910E+00  7.59869910E+00
 -1.51973982E+01  7.59869910E+00  7.59869910E+00 -1.51973982E+01  7.59869910E+00
  7.59869910E+00 -1.51973982E+01  7.59869910E+00  7.59869910E+00 -1.51973982E+01
  7.59869910E+00  7.59869910E+00 -1.51973982E+01  7.59869910E+00  7.59869910E+00
 -1.51973982E+01  7.59869910E+00  7.59869910E+00 -1.51973982E+01  7.59869910E+00
  7.59869910E+00 -1.51973982E+01  7.59869910E+00  7.59869910E+00 -1.51973982E+01
  7.59869910E+00  7.59869910E+00 -1.51973982E+01  7.59869910E+00  7.59869910E+00
 -1.51973982E+01  7.59869910E+00  7.59869910E+00 -1.51973982E+01  7.59869910E+00
  7.59869910E+00 -1.51973982E+01  7.59869910E+00  7.59869910E+00 -1.51973982E+01
  7.59869910E+00  7.59869910E+00 -1.51973982E+01  7.59869910E+00  7.59869910E+00
 -1.51973982E+01  7.59869910E+00  7.59869910E+00 -1.51973982E+01  7.59869910E+00
  7.59869910E+00 -1.51973982E+01  7.59869910E+00  7.59869910E+00 -1.51973982E+01
  7.59869910E+00  7.59869910E+00 -1.51973982E+01  7.59869910E+00  7.59869910E+00
 -1.51973982E+01  7.59869910E+00  7.59869910E+00 -1.51973982E+01  7.59869910E+00
  7.59869910E+00 -1.51973982E+01  7.59869910E+00  7.59869910E+00 -1.51973982E+01
  7.59869910E+00  7.59869910E+00 -1.51973982E+01  7.59869910E+00  7.59869910E+00
 -1.51973982E+01  7.59869910E+00  7.59869910E+00 -1.51973982E+01  7.59869910E+00
  7.59869910E+00 -1.51973982E+01  7.59869910E+00  7.59869910E+00 -1.51973982E+01
  7.59869910E+00  7.59869910E+00 -1.51973982E+01  7.59869910E+00  7.59869910E+00
 -1.51973982E+01  7.59869910E+00  7.59869910E+00 -1.51973982E+01  7.59869910E+00
  7.59869910E+00 -1.51973982E+01  7.59869910E+00  7.59869910E+00 -1.51973982E+01
  7.59869910E+00  7.59869910E+00 -1.51973982E+01  7.59869910E+00  7.59869910E+00
 -1.51973982E+01  7.59869910E+00  7.59869910E+00 -1.51973982E+01  7.59869910E+00
  7.59869910E+00 -1.51973982E+01  7.59869910E+00  7.59869910E+00 -1.51973982E+01
  7.59869910E+00  7.59869910E+00 -1.51973982E+01  7.59869910E+00  7.59869910E+00
 -1.51973982E+01  7.59869910E+00  7.59869910E+00 -1.51973982E+01  7.59869910E+00
  7.59869910E+00 -1.51973982E+01  7.59869910E+00  7.59869910E+00 -1.51973982E+01
  7.59869910E+00  7.59869910E+00 -1.51973982E+01  7.59869910E+00  7.59869910E+00
 -1.51973982E+01  7.59869910E+00  7.59869910E+00 -1.51973982E+01  7.59869910E+00
  7.59869910E+00 -1.51973982E+01  7.59869910E+00  7.59869910E+00 -1.51973982E+01
  7.59869910E+00  7.59869910E+00 -1.51973982E+01  7.59869910E+00  7.59869910E+00
 -1.51973982E+01  7.59869910E+00  7.59869910E+00 -1.51973982E+01  7.59869910E+00
  7.59869910E+00 -1.51973982E+01  7.59869910E+00  7.59869910E+00 -1.51973982E+01
  7.59869910E+00  7.59869910E+00 -1.51973982E+01  7.59869910E+00  7.59869910E+00
 -1.51973982E+01  7.59869910E+00  7.59869910E+00 -1.51973982E+01  7.59869910E+00
  7.59869910E+00 -1.51973982E+01  7.59869910E+00  7.59869910E+00 -1.51973982E+01
  7.59869910E+00  7.59869910E+00 -1.51973982E+01  7.59869910E+00  7.59869910E+00
 -1.51973982E+01  7.59869910E+00  7.59869910E+00 -1.51973982E+01  7.59869910E+00
  7.59869910E+00 -1.51973982E+01  7.59869910E+00  7.59869910E+00 -1.51973982E+01
  7.59869910E+00  7.59869910E+00 -1.51973982E+01  7.59869910E+00  7.59869910E+00
 -1.51973982E+01  7.59869910E+00  7.59869910E+00 -1.51973982E+01  7.59869910E+00
  7.59869910E+00 -1.51973982E+01  7.59869910E+00  7.59869910E+00 -1.51973982E+01
  7.59869910E+00  7.59869910E+00 -1.51973982E+01  7.59869910E+00  7.59869910E+00
 -1.51973982E+01  7.59869910E+00  7.59869910E+00 -1.51973982E+01  7.59869910E+00
  7.59869910E+00 -1.51973982E+01  7.59869910E+00  7.59869910E+00 -1.51973982E+01
  7.59869910E+00  7.59869910E+00 -1.51973982E+01  7.59869910E+00  7.59869910E+00
 -1.51973982E+01  7.59869910E+00  7.59869910E+00 -1.51973982E+01  7.59869910E+00
  7.59869910E+00 -1.51973982E+01  7.59869910E+00  7.59869910E+00 -1.51973982E+01
  7.59869910E+00  7.59869910E+00 -1.51973982E+01  7.59869910E+00  7.59869910E+00
 -1.51973982E+01  7.59869910E+00  7.59869910E+00 -1.51973982E+01  7.59869910E+00
  7.59869910E+00 -1.51973982E+01  7.59869910E+00  7.59869910E+00 -1.51973982E+01
  7.59869910E+00  7.59869910E+00 -1.51973982E+01  7.59869910E+00  7.59869910E+00
 -1.51973982E+01  7.59869910E+00  7.59869910E+00 -1.51973982E+01  7.59869910E+00
  7.59869910E+00 -1.51973982E+01  7.59869910E+00  7.59869910E+00 -1.51973982E+01
  7.59869910E+00  7.59869910E+00 -1.51973982E+01  7.59869910E+00  7.59869910E+00
 -1.51973982E+01  7.59869910E+00  7.59869910E+00 -1.51973982E+01  7.59869910E+00
  7.59869910E+00 -1.51973982E+01  7.59869910E+00  7.59869910E+00 -1.51973982E+01
  7.59869910E+00  7.59869910E+00 -1.51973982E+01  7.59869910E+00  7.59869910E+00
 -1.51973982E+01  7.59869910E+00  7.59869910E+00 -1.51973982E+01  7.59869910E+00
  7.59869910E+00 -1.51973982E+01  7.59869910E+00  7.59869910E+00 -1.51973982E+01
  7.59869910E+00  7.59869910E+00 -1.51973982E+01  7.59869910E+00  7.59869910E+00
 -1.51973982E+01  7.59869910E+00  7.59869910E+00 -1.51973982E+01  7.59869910E+00
  7.59869910E+00 -1.51973982E+01  7.59869910E+00  7.59869910E+00 -1.51973982E+01
  7.59869910E+00  7.59869910E+00 -1.51973982E+01  7.59869910E+00  7.59869910E+00
 -1.51973982E+01  7.59869910E+00  7.59869910E+00 -1.51973982E+01  7.59869910E+00
  7.59869910E+00 -1.51973982E+01  7.59869910E+00  7.59869910E+00 -1.51973982E+01
  7.59869910E+00  7.59869910E+00 -1.51973982E+01  7.59869910E+00  7.59869910E+00
 -1.51973982E+01  7.59869910E+00  7.59869910E+00 -1.51973982E+01  7.59869910E+00
  7.59869910E+00 -1.51973982E+01  7.59869910E+00  7.59869910E+00 -1.51973982E+01
  7.59869910E+00  7.59869910E+00 -1.51973982E+01  7.59869910E+00  7.59869910E+00
 -1.51973982E+01  7.59869910E+00  7.59869910E+00 -1.51973982E+01  7.59869910E+00
  7.59869910E+00 -1.51973982E+01  7.59869910E+00  7.59869910E+00 -1.51973982E+01
  7.59869910E+00  7.59869910E+00 -1.51973982E+01  7.59869910E+00  7.59869910E+00
 -1.51973982E+01  7.59869910E+00  7.59869910E+00 -1.51973982E+01  7.59869910E+00
  7.59869910E+00 -1.51973982E+01  7.59869910E+00  7.59869910E+00 -1.51973982E+01
  7.59869910E+00  7.59869910E+00 -1.51973982E+01  7.59869910E+00  7.59869910E+00
 -1.51973982E+01  7.59869910E+00  7.59869910E+00 -1.51973982E+01  7.59869910E+00
  7.59869910E+00 -1.51973982E+01  7.59869910E+00  7.59869910E+00 -1.51973982E+01
  7.59869910E+00  7.59869910E+00 -1.51973982E+01  7.59869910E+00  7.59869910E+00
 -1.51973982E+01  7.59869910E+00  7.59869910E+00 -1.51973982E+01  7.59869910E+00
  7.59869910E+00 -1.51973982E+01  7.59869910E+00  7.59869910E+00 -1.51973982E+01
  7.59869910E+00  7.59869910E+00 -1.51973982E+01  7.59869910E+00  7.59869910E+00
 -1.51973982E+01  7.59869910E+00  7.59869910E+00 -1.51973982E+01  7.59869910E+00
  7.59869910E+00 -1.51973982E+01  7.59869910E+00  7.59869910E+00 -1.51973982E+01
  7.59869910E+00  7.59869910E+00 -1.51973982E+01  7.59869910E+00  7.59869910E+00
 -1.51973982E+01  7.59869910E+00  7.59869910E+00 -1.51973982E+01  7.59869910E+00
  7.59869910E+00 -1.51973982E+01  7.59869910E+00  7.59869910E+00 -1.51973982E+01
  7.59869910E+00  7.59869910E+00 -1.51973982E+01  7.59869910E+00  7.59869910E+00
 -1.51973982E+01  7.59869910E+00  7.59869910E+00 -1.51973982E+01  7.59869910E+00
  7.59869910E+00 -1.51973982E+01  7.59869910E+00  7.59869910E+00 -1.51973982E+01
  7.59869910E+00  7.59869910E+00 -1.51973982E+01  7.59869910E+00  7.59869910E+00
 -1.51973982E+01  7.59869910E+00  7.59869910E+00 -1.51973982E+01  7.59869910E+00
  7.59869910E+00 -1.51973982E+01  7.59869910E+00  7.59869910E+00 -1.51973982E+01
  7.59869910E+00  7.59869910E+00 -1.51973982E+01  7.59869910E+00  7.59869910E+00
 -1.51973982E+01  7.59869910E+00  7.59869910E+00 -1.51973982E+01  7.59869910E+00
  7.59869910E+00 -1.51973982E+01  7.59869910E+00  7.59869910E+00 -1.51973982E+01
  7.59869910E+00  7.59869910E+00 -1.51973982E+01  7.59869910E+00  7.59869910E+00
 -1.51973982E+01  7.59869910E+00  7.59869910E+00 -1.51973982E+01  7.59869910E+00
  7.59869910E+00 -1.51973982E+01  7.59869910E+00  7.59869910E+00 -1.51973982E+01
  7.59869910E+00  7.59869910E+00 -1.51973982E+01  7.59869910E+00  7.59869910E+00
 -1.51973982E+01  7.59869910E+00  7.59869910E+00 -1.51973982E+01  7.59869910E+00
  7.59869910E+00 -1.51973982E+01  7.59869910E+00  7.59869910E+00 -1.51973982E+01
  7.59869910E+00  7.59869910E+00 -1.51973982E+01  7.59869910E+00  7.59869910E+00
 -1.51973982E+01  7.59869910E+00  7.59869910E+00 -1.51973982E+01  7.59869910E+00
  7.59869910E+00 -1.51973982E+01  7.59869910E+00  7.59869910E+00 -1.51973982E+01
  7.59869910E+00  7.59869910E+00 -1.51973982E+01  7.59869910E+00  7.59869910E+00
 -1.51973982E+01  7.59869910E+00  7.59869910E+00 -1.51973982E+01  7.59869910E+00
  7.59869910E+00 -1.51973982E+01  7.59869910E+00  7.59869910E+00 -1.51973982E+01
  7.59869910E+00  7.59869910E+00 -1.51973982E+01  7.59869910E+00  7.59869910E+00
 -1.51973982E+01  7.59869910E+00  7.59869910E+00 -1.51973982E+01  7.59869910E+00
  7.59869910E+00 -1.51973982E+01  7.59869910E+00  7.59869910E+00 -1.51973982E+01
  7.59869910E+00  7.59869910E+00 -1.51973982E+01  7.59869910E+00  7.59869910E+00
 -1.51973982E+01  7.59869910E+00  7.59869910E+00 -1.51973982E+01  7.59869910E+00
  7.59869910E+00 -1.51973982E+01  7.59869910E+00  7.59869910E+00 -1.51973982E+01
  7.59869910E+00  7.59869910E+00 -1.51973982E+01  7.59869910E+00  7.59869910E+00
 -1.51973982E+01  7.59869910E+00  7.59869910E+00 -1.51973982E+01  7.59869910E+00
  7.59869910E+00 -1.51973982E+01  7.59869910E+00  7.59869910E+00 -1.51973982E+01
  7.59869910E+00  7.59869910E+00 -1.51973982E+01  7.59869910E+00  7.59869910E+00
 -1.51973982E+01  7.59869910E+00  7.59869910E+00 -1.51973982E+01  7.59869910E+00
  7.59869910E+00 -1.51973982E+01  7.59869910E+00  7.59869910E+00 -1.51973982E+01
  7.59869910E+00  7.59869910E+00 -1.51973982E+01  7.59869910E+00  7.59869910E+00
 -1.51973982E+01  7.59869910E+00  7.59869910E+00 -1.51973982E+01  7.59869910E+00
  7.59869910E+00 -1.51973982E+01  7.59869910E+00  7.59869910E+00 -1.51973982E+01
  7.59869910E+00  7.59869910E+00 -1.51973982E+01  7.59869910E+00  7.59869910E+00
 -1.51973982E+01  7.59869910E+00  7.59869910E+00 -1.51973982E+01  7.59869910E+00
  7.59869910E+00 -1.51973982E+01  7.59869910E+00  7.59869910E+00 -1.51973982E+01
  7.59869910E+00  7.59869910E+00 -1.51973982E+01  7.59869910E+00  7.59869910E+00
 -1.51973982E+01  7.59869910E+00  7.59869910E+00 -1.51973982E+01  7.59869910E+00
  7.59869910E+00 -1.51973982E+01  7.59869910E+00  7.59869910E+00 -1.51973982E+01
  7.59869910E+00  7.59869910E+00 -1.51973982E+01  7.59869910E+00  7.59869910E+00
 -1.51973982E+01  7.59869910E+00  7.59869910E+00 -1.51973982E+01  7.59869910E+00
  7.59869910E+00 -1.51973982E+01  7.59869910E+00  7.59869910E+00 -1.51973982E+01
  7.59869910E+00  7.59869910E+00 -1.51973982E+01  7.59869910E+00  7.59869910E+00
 -1.51973982E+01  7.59869910E+00  7.59869910E+00 -1.51973982E+01  7.59869910E+00
  7.59869910E+00 -1.51973982E+01  7.59869910E+00  7.59869910E+00 -1.51973982E+01
  7.59869910E+00  7.59869910E+00 -1.51973982E+01  7.59869910E+00  7.59869910E+00
 -1.51973982E+01  7.59869910E+00  7.59869910E+00 -1.51973982E+01  7.59869910E+00
  7.59869910E+00 -1.51973982E+01  7.59869910E+00  7.59869910E+00 -1.51973982E+01
  7.59869910E+00  7.59869910E+00 -1.51973982E+01  7.59869910E+00  7.59869910E+00
 -1.51973982E+01  7.59869910E+00  7.59869910E+00 -1.51973982E+01  7.59869910E+00
  7.59869910E+00 -1.51973982E+01  7.59869910E+00  7.59869910E+00 -1.51973982E+01
  7.59869910E+00  7.59869910E+00 -1.51973982E+01  7.59869910E+00  7.59869910E+00
 -1.51973982E+01  7.59869910E+00  7.59869910E+00 -1.51973982E+01  7.59869910E+00
  7.59869910E+00 -1.51973982E+01  7.59869910E+00  7.59869910E+00 -1.51973982E+01
  7.59869910E+00  7.59869910E+00 -1.51973982E+01  7.59869910E+00  7.59869910E+00
 -1.51973982E+01  7.59869910E+00  7.59869910E+00 -1.51973982E+01  7.59869910E+00
  7.59869910E+00 -1.51973982E+01  7.59869910E+00  7.59869910E+00 -1.51973982E+01
  7.59869910E+00  7.59869910E+00 -1.51973982E+01  7.59869910E+00  7.59869910E+00
 -1.51973982E+01  7.59869910E+00  7.59869910E+00 -1.51973982E+01  7.59869910E+00
  7.59869910E+00 -1.51973982E+01  7.59869910E+00  7.59869910E+00 -1.51973982E+01
  7.59869910E+00  7.59869910E+00 -1.51973982E+01  7.59869910E+00  7.59869910E+00
 -1.51973982E+01  7.59869910E+00  7.59869910E+00 -1.51973982E+01  7.59869910E+00
  7.59869910E+00 -1.51973982E+01  7.59869910E+00  7.59869910E+00 -1.51973982E+01
  7.59869910E+00  7.59869910E+00 -1.51973982E+01  7.59869910E+00  7.59869910E+00
 -1.51973982E+01  7.59869910E+00  7.59869910E+00 -1.51973982E+01  7.59869910E+00
  7.59869910E+00 -1.51973982E+01  7.59869910E+00  7.59869910E+00 -1.51973982E+01
  7.59869910E+00  7.59869910E+00 -1.51973982E+01  7.59869910E+00  7.59869910E+00
 -1.51973982E+01  7.59869910E+00  7.59869910E+00 -1.51973982E+01  7.59869910E+00
  7.59869910E+00 -1.51973982E+01  7.59869910E+00  7.59869910E+00 -1.51973982E+01
  7.59869910E+00  7.59869910E+00 -1.51973982E+01  7.59869910E+00  7.59869910E+00
 -1.51973982E+01  7.59869910E+00  7.59869910E+00 -1.51973982E+01  7.59869910E+00
  7.59869910E+00 -1.51973982E+01  7.59869910E+00  7.59869910E+00 -1.51973982E+01
  7.59869910E+00  7.59869910E+00 -1.51973982E+01  7.59869910E+00  7.59869910E+00
 -1.51973982E+01  7.59869910E+00  7.59869910E+00 -1.51973982E+01  7.59869910E+00
  7.59869910E+00 -1.51973982E+01  7.59869910E+00  7.59869910E+00 -1.51973982E+01
  7.59869910E+00  7.59869910E+00 -1.51973982E+01  7.59869910E+00  7.59869910E+00
 -1.51973982E+01  7.59869910E+00  7.59869910E+00 -1.51973982E+01  7.59869910E+00
  7.59869910E+00 -1.51973982E+01  7.59869910E+00  7.59869910E+00 -1.51973982E+01
  7.59869910E+00  7.59869910E+00 -1.51973982E+01  7.59869910E+00  7.59869910E+00
 -1.51973982E+01  7.59869910E+00  7.59869910E+00 -1.51973982E+01  7.59869910E+00
  7.59869910E+00 -1.51973982E+01  7.59869910E+00  7.59869910E+00 -1.51973982E+01
  7.59869910E+00  7.59869910E+00 -1.51973982E+01  7.59869910E+00  7.59869910E+00
 -1.51973982E+01  7.59869910E+00  7.59869910E+00 -1.51973982E+01  7.59869910E+00
  7.59869910E+00 -1.51973982E+01  7.59869910E+00  7.59869910E+00 -1.51973982E+01
  7.59869910E+00  7.59869910E+00 -1.51973982E+01  7.59869910E+00  7.59869910E+00
 -1.51973982E+01  7.59869910E+00  7.59869910E+00 -1.51973982E+01  7.59869910E+00
  7.59869910E+00 -1.51973982E+01  7.59869910E+00  7.59869910E+00 -1.51973982E+01
  7.59869910E+00  7.59869910E+00 -1.51973982E+01  7.59869910E+00  7.59869910E+00
 -1.51973982E+01  7.59869910E+00  7.59869910E+00 -1.51973982E+01  7.59869910E+00
  7.59869910E+00 -1.51973982E+01  7.59869910E+00  7.59869910E+00 -1.51973982E+01
  7.59869910E+00  7.59869910E+00 -1.51973982E+01  7.59869910E+00  7.59869910E+00
 -1.51973982E+01  7.59869910E+00  7.59869910E+00 -1.51973982E+01  7.59869910E+00
  7.59869910E+00 -1.51973982E+01  7.59869910E+00  7.59869910E+00 -1.51973982E+01
  7.59869910E+00  7.59869910E+00 -1.51973982E+01  7.59869910E+00  7.59869910E+00
 -1.51973982E+01  7.59869910E+00  7.59869910E+00 -1.51973982E+01  7.59869910E+00
  7.59869910E+00 -1.51973982E+01  7.59869910E+00  7.59869910E+00 -1.51973982E+01
  7.59869910E+00  7.59869910E+00 -1.51973982E+01  7.59869910E+00  7.59869910E+00
 -1.51973982E+01  7.59869910E+00  7.59869910E+00 -1.51973982E+01  7.59869910E+00
  7.59869910E+00 -1.51973982E+01  7.59869910E+00  7.59869910E+00 -1.51973982E+01
  7.59869910E+00  7.59869910E+00 -1.51973982E+01  7.59869910E+00  7.59869910E+00
 -1.51973982E+01  7.59869910E+00  7.59869910E+00 -1.51973982E+01  7.59869910E+00
  7.59869910E+00 -1.51973982E+01  7.59869910E+00  7.59869910E+00 -1.51973982E+01
  7.59869910E+00  7.59869910E+00 -1.51973982E+01  7.59869910E+00  7.59869910E+00
 -1.51973982E+01  7.59869910E+00  7.59869910E+00 -1.51973982E+01  7.59869910E+00
  7.59869910E+00 -1.51973982E+01  7.59869910E+00  7.59869910E+00 -1.51973982E+01
  7.59869910E+00  7.59869910E+00 -1.51973982E+01  7.59869910E+00  7.59869910E+00
 -1.51973982E+01  7.59869910E+00  7.59869910E+00 -1.51973982E+01  7.59869910E+00
  7.59869910E+00 -1.51973982E+01  7.59869910E+00  7.59869910E+00 -1.51973982E+01
  7.59869910E+00  7.59869910E+00 -1.51973982E+01  7.59869910E+00  7.59869910E+00
 -1.51973982E+01  7.59869910E+00  7.59869910E+00 -1.51973982E+01  7.59869910E+00
  7.59869910E+00 -1.51973982E+01  7.59869910E+00  7.59869910E+00 -1.51973982E+01
  7.59869910E+00  7.59869910E+00 -1.51973982E+01  7.59869910E+00  7.59869910E+00
 -1.51973982E+01  7.59869910E+00  7.59869910E+00 -1.51973982E+01  7.59869910E+00
  7.59869910E+00 -1.51973982E+01  7.59869910E+00  7.59869910E+00 -1.51973982E+01
  7.59869910E+00  7.59869910E+00 -1.51973982E+01  7.59869910E+00  7.59869910E+00
 -1.51973982E+01  7.59869910E+00  7.59869910E+00 -1.51973982E+01  7.59869910E+00
  7.59869910E+00 -1.51973982E+01  7.59869910E+00  7.59869910E+00 -1.51973982E+01
  7.59869910E+00  7.59869910E+00 -1.51973982E+01  7.59869910E+00  7.59869910E+00
 -1.51973982E+01  7.59869910E+00  7.59869910E+00 -1.51973982E+01  7.59869910E+00
  7.59869910E+00 -1.51973982E+01  7.59869910E+00  7.59869910E+00 -1.51973982E+01
  7.59869910E+00  7.59869910E+00 -1.51973982E+01  7.59869910E+00  7.59869910E+00
 -1.51973982E+01  7.59869910E+00  7.59869910E+00 -1.51973982E+01  7.59869910E+00
  7.59869910E+00 -1.51973982E+01  7.59869910E+00  7.59869910E+00 -1.51973982E+01
  7.59869910E+00  7.59869910E+00 -1.51973982E+01  7.59869910E+00  7.59869910E+00
 -1.51973982E+01  7.59869910E+00  7.59869910E+00 -1.51973982E+01  7.59869910E+00
  7.59869910E+00 -1.51973982E+01  7.59869910E+00  7.59869910E+00 -1.51973982E+01
  7.59869910E+00  7.59869910E+00 -1.51973982E+01  7.59869910E+00  7.59869910E+00
 -1.51973982E+01  7.59869910E+00  7.59869910E+00 -1.51973982E+01  7.59869910E+00
  7.59869910E+00 -1.51973982E+01  7.59869910E+00  7.59869910E+00 -1.51973982E+01
  7.59869910E+00  7.59869910E+00 -1.51973982E+01  7.59869910E+00  7.59869910E+00
 -1.51973982E+01  7.59869910E+00  7.59869910E+00 -1.51973982E+01  7.59869910E+00
  7.59869910E+00 -1.51973982E+01  7.59869910E+00  7.59869910E+00 -1.51973982E+01
  7.59869910E+00  7.59869910E+00 -1.51973982E+01  7.59869910E+00  7.59869910E+00
 -1.51973982E+01  7.59869910E+00  7.59869910E+00 -1.51973982E+01  7.59869910E+00
  7.59869910E+00 -1.51973982E+01  7.59869910E+00  7.59869910E+00 -1.51973982E+01
  7.59869910E+00  7.59869910E+00 -1.51973982E+01  7.59869910E+00  7.59869910E+00
 -1.51973982E+01  7.59869910E+00  7.59869910E+00 -1.51973982E+01  7.59869910E+00
  7.59869910E+00 -1.51973982E+01  7.59869910E+00  7.59869910E+00 -1.51973982E+01
  7.59869910E+00  7.59869910E+00 -1.51973982E+01  7.59869910E+00  7.59869910E+00
 -1.51973982E+01  7.59869910E+00  7.59869910E+00 -1.51973982E+01  7.59869910E+00
  7.59869910E+00 -1.51973982E+01  7.59869910E+00  7.59869910E+00 -1.51973982E+01
  7.59869910E+00  7.59869910E+00 -1.51973982E+01  7.59869910E+00  7.59869910E+00
 -1.51973982E+01  7.59869910E+00  7.59869910E+00 -1.51973982E+01  7.59869910E+00
  7.59869910E+00 -1.51973982E+01  7.59869910E+00  7.59869910E+00 -1.51973982E+01
  7.59869910E+00  7.59869910E+00 -1.51973982E+01  7.59869910E+00  7.59869910E+00
 -1.51973982E+01  7.59869910E+00  7.59869910E+00 -1.51973982E+01  7.59869910E+00
  7.59869910E+00 -1.51973982E+01  7.59869910E+00  7.59869910E+00 -1.51973982E+01
  7.59869910E+00  7.59869910E+00 -1.51973982E+01  7.59869910E+00  7.59869910E+00
 -1.51973982E+01  7.59869910E+00  7.59869910E+00 -1.51973982E+01  7.59869910E+00
  7.59869910E+00 -1.51973982E+01  7.59869910E+00  7.59869910E+00 -1.51973982E+01
  7.59869910E+00  7.59869910E+00 -1.51973982E+01  7.59869910E+00  7.59869910E+00
 -1.51973982E+01  7.59869910E+00  7.59869910E+00 -1.51973982E+01  7.59869910E+00
  7.59869910E+00 -1.51973982E+01  7.59869910E+00  7.59869910E+00 -1.51973982E+01
  7.59869910E+00  7.59869910E+00 -1.51973982E+01  7.59869910E+00  7.59869910E+00
 -1.51973982E+01  7.59869910E+00  7.59869910E+00 -1.51973982E+01  7.59869910E+00
  7.59869910E+00 -1.51973982E+01  7.59869910E+00  7.59869910E+00 -1.51973982E+01
  7.59869910E+00  7.59869910E+00 -1.51973982E+01  7.59869910E+00  7.59869910E+00
 -1.51973982E+01  7.59869910E+00  7.59869910E+00 -1.51973982E+01  7.59869910E+00
  7.59869910E+00 -1.51973982E+01  7.59869910E+00  7.59869910E+00 -1.51973982E+01
  7.59869910E+00  7.59869910E+00 -1.51973982E+01  7.59869910E+00  7.59869910E+00
 -1.51973982E+01  7.59869910E+00  7.59869910E+00 -1.51973982E+01  7.59869910E+00
  7.59869910E+00 -1.51973982E+01  7.59869910E+00  7.59869910E+00 -1.51973982E+01
  7.59869910E+00  7.59869910E+00 -1.51973982E+01  7.59869910E+00  7.59869910E+00
 -1.51973982E+01  7.59869910E+00  7.59869910E+00 -1.51973982E+01  7.59869910E+00
  7.59869910E+00 -1.51973982E+01  7.59869910E+00  7.59869910E+00 -1.51973982E+01
  7.59869910E+00  7.59869910E+00 -1.51973982E+01  7.59869910E+00  7.59869910E+00
 -1.51973982E+01  7.59869910E+00  7.59869910E+00 -1.51973982E+01  7.59869910E+00
  7.59869910E+00 -1.51973982E+01  7.59869910E+00  7.59869910E+00 -1.51973982E+01
  7.59869910E+00  7.59869910E+00 -1.51973982E+01  7.59869910E+00  7.59869910E+00
 -1.51973982E+01  7.59869910E+00  7.59869910E+00 -1.51973982E+01  7.59869910E+00
  7.59869910E+00 -1.51973982E+01  7.59869910E+00  7.59869910E+00 -1.51973982E+01
  7.59869910E+00  7.59869910E+00 -1.51973982E+01  7.59869910E+00  7.59869910E+00
 -1.51973982E+01  7.59869910E+00  7.59869910E+00 -1.51973982E+01  7.59869910E+00
  7.59869910E+00 -1.51973982E+01  7.59869910E+00  7.59869910E+00 -1.51973982E+01
  7.59869910E+00  7.59869910E+00 -1.51973982E+01  7.59869910E+00  7.59869910E+00
 -1.51973982E+01  7.59869910E+00  7.59869910E+00 -1.51973982E+01  7.59869910E+00
  7.59869910E+00 -1.51973982E+01  7.59869910E+00  7.59869910E+00 -1.51973982E+01
  7.59869910E+00  7.59869910E+00 -1.51973982E+01  7.59869910E+00  7.59869910E+00
 -1.51973982E+01  7.59869910E+00  7.59869910E+00 -1.51973982E+01  7.59869910E+00
  7.59869910E+00 -1.51973982E+01  7.59869910E+00  7.59869910E+00 -1.51973982E+01
  7.59869910E+00  7.59869910E+00 -1.51973982E+01  7.59869910E+00  7.59869910E+00
 -1.51973982E+01  7.59869910E+00  7.59869910E+00 -1.51973982E+01  7.59869910E+00
  7.59869910E+00 -1.51973982E+01  7.59869910E+00  7.59869910E+00 -1.51973982E+01
  7.59869910E+00  7.59869910E+00 -1.51973982E+01  7.59869910E+00  7.59869910E+00
 -1.51973982E+01  7.59869910E+00  7.59869910E+00 -1.51973982E+01  7.59869910E+00
  7.59869910E+00 -1.51973982E+01  7.59869910E+00  7.59869910E+00 -1.51973982E+01
  7.59869910E+00  7.59869910E+00 -1.51973982E+01  7.59869910E+00  7.59869910E+00
 -1.51973982E+01  7.59869910E+00  7.59869910E+00 -1.51973982E+01  7.59869910E+00
  7.59869910E+00 -1.51973982E+01  7.59869910E+00  7.59869910E+00 -1.51973982E+01
  7.59869910E+00  7.59869910E+00 -1.51973982E+01  7.59869910E+00  7.59869910E+00
 -1.51973982E+01  7.59869910E+00  7.59869910E+00 -1.51973982E+01  7.59869910E+00
  7.59869910E+00 -1.51973982E+01  7.59869910E+00  7.59869910E+00 -1.51973982E+01
  7.59869910E+00  7.59869910E+00 -1.51973982E+01  7.59869910E+00  7.59869910E+00
 -1.51973982E+01  7.59869910E+00  7.59869910E+00 -1.51973982E+01  7.59869910E+00
  7.59869910E+00 -1.51973982E+01  7.59869910E+00  7.59869910E+00 -1.51973982E+01
  7.59869910E+00  7.59869910E+00 -1.51973982E+01  7.59869910E+00  7.59869910E+00
 -1.51973982E+01  7.59869910E+00  7.59869910E+00 -1.51973982E+01  7.59869910E+00
  7.59869910E+00 -1.51973982E+01  7.59869910E+00  7.59869910E+00 -1.51973982E+01
  7.59869910E+00  7.59869910E+00 -1.51973982E+01  7.59869910E+00  7.59869910E+00
 -1.51973982E+01  7.59869910E+00  7.59869910E+00 -1.51973982E+01  7.59869910E+00
  7.59869910E+00 -1.51973982E+01  7.59869910E+00  7.59869910E+00 -1.51973982E+01
  7.59869910E+00  7.59869910E+00 -1.51973982E+01  7.59869910E+00  7.59869910E+00
 -1.51973982E+01  7.59869910E+00  7.59869910E+00 -1.51973982E+01  7.59869910E+00
  7.59869910E+00 -1.51973982E+01  7.59869910E+00  7.59869910E+00 -1.51973982E+01
  7.59869910E+00  7.59869910E+00 -1.51973982E+01  7.59869910E+00  7.59869910E+00
 -1.51973982E+01  7.59869910E+00  7.59869910E+00 -1.51973982E+01  7.59869910E+00
  7.59869910E+00 -1.51973982E+01  7.59869910E+00  7.59869910E+00 -1.51973982E+01
  7.59869910E+00  7.59869910E+00 -1.51973982E+01  7.59869910E+00  7.59869910E+00
 -1.51973982E+01  7.59869910E+00  7.59869910E+00 -1.51973982E+01  7.59869910E+00
  7.59869910E+00 -1.51973982E+01  7.59869910E+00  7.59869910E+00 -1.51973982E+01
  7.59869910E+00  7.59869910E+00 -1.51973982E+01  7.59869910E+00  7.59869910E+00
 -1.51973982E+01  7.59869910E+00  7.59869910E+00 -1.51973982E+01  7.59869910E+00
  7.59869910E+00 -1.51973982E+01  7.59869910E+00  7.59869910E+00 -1.51973982E+01
  7.59869910E+00  7.59869910E+00 -1.51973982E+01  7.59869910E+00  7.59869910E+00
 -1.51973982E+01  7.59869910E+00  7.59869910E+00 -1.51973982E+01  7.59869910E+00
  7.59869910E+00 -1.51973982E+01  7.59869910E+00  7.59869910E+00 -1.51973982E+01
  7.59869910E+00  7.59869910E+00 -1.51973982E+01  7.59869910E+00  7.59869910E+00
 -1.51973982E+01  7.59869910E+00  7.59869910E+00 -1.51973982E+01  7.59869910E+00
  7.59869910E+00 -1.51973982E+01  7.59869910E+00  7.59869910E+00 -1.51973982E+01
  7.59869910E+00  7.59869910E+00 -1.51973982E+01  7.59869910E+00  7.59869910E+00
 -1.51973982E+01  7.59869910E+00  7.59869910E+00 -1.51973982E+01  7.59869910E+00
  7.59869910E+00 -1.51973982E+01  7.59869910E+00  7.59869910E+00 -1.51973982E+01
  7.59869910E+00  7.59869910E+00 -1.51973982E+01  7.59869910E+00  7.59869910E+00
 -1.51973982E+01  7.59869910E+00  7.59869910E+00 -1.51973982E+01  7.59869910E+00
  7.59869910E+00 -1.51973982E+01  7.59869910E+00  7.59869910E+00 -1.51973982E+01
  7.59869910E+00  7.59869910E+00 -1.51973982E+01  7.59869910E+00  7.59869910E+00
 -1.51973982E+01  7.59869910E+00  7.59869910E+00 -1.51973982E+01  7.59869910E+00
  7.59869910E+00 -1.51973982E+01  7.59869910E+00  7.59869910E+00 -1.51973982E+01
  7.59869910E+00  7.59869910E+00 -1.51973982E+01  7.59869910E+00  7.59869910E+00
 -1.51973982E+01  7.59869910E+00  7.59869910E+00 -1.51973982E+01  7.59869910E+00
  7.59869910E+00 -1.51973982E+01  7.59869910E+00  7.59869910E+00 -1.51973982E+01
  7.59869910E+00  7.59869910E+00 -1.51973982E+01  7.59869910E+00  7.59869910E+00
 -1.51973982E+01  7.59869910E+00  7.59869910E+00 -1.51973982E+01  7.59869910E+00
  7.59869910E+00 -1.51973982E+01  7.59869910E+00  7.59869910E+00 -1.51973982E+01
  7.59869910E+00  7.59869910E+00 -1.51973982E+01  7.59869910E+00  7.59869910E+00
 -1.51973982E+01  7.59869910E+00  7.59869910E+00 -1.51973982E+01  7.59869910E+00
  7.59869910E+00 -1.51973982E+01  7.59869910E+00  7.59869910E+00 -1.51973982E+01
  7.59869910E+00  7.59869910E+00 -1.51973982E+01  7.59869910E+00  7.59869910E+00
 -1.51973982E+01  7.59869910E+00  7.59869910E+00 -1.51973982E+01  7.59869910E+00
  7.59869910E+00 -1.51973982E+01  7.59869910E+00  7.59869910E+00 -1.51973982E+01
  7.59869910E+00  7.59869910E+00 -1.51973982E+01  7.59869910E+00  7.59869910E+00
 -1.51973982E+01  7.59869910E+00  7.59869910E+00 -1.51973982E+01  7.59869910E+00
  7.59869910E+00 -1.51973982E+01  7.59869910E+00  7.59869910E+00 -1.51973982E+01
  7.59869910E+00  7.59869910E+00 -1.51973982E+01  7.59869910E+00  7.59869910E+00
 -1.51973982E+01  7.59869910E+00  7.59869910E+00 -1.51973982E+01  7.59869910E+00
  7.59869910E+00 -1.51973982E+01  7.59869910E+00  7.59869910E+00 -1.51973982E+01
  7.59869910E+00  7.59869910E+00 -1.51973982E+01  7.59869910E+00  7.59869910E+00
 -1.51973982E+01  7.59869910E+00  7.59869910E+00 -1.51973982E+01  7.59869910E+00
  7.59869910E+00 -1.51973982E+01  7.59869910E+00  7.59869910E+00 -1.51973982E+01
  7.59869910E+00  7.59869910E+00 -1.51973982E+01  7.59869910E+00  7.59869910E+00
 -1.51973982E+01  7.59869910E+00  7.59869910E+00 -1.51973982E+01  7.59869910E+00
  7.59869910E+00 -1.51973982E+01  7.59869910E+00  7.59869910E+00 -1.51973982E+01
  7.59869910E+00  7.59869910E+00 -1.51973982E+01  7.59869910E+00  7.59869910E+00
 -1.51973982E+01  7.59869910E+00  7.59869910E+00 -1.51973982E+01  7.59869910E+00
  7.59869910E+00 -1.51973982E+01  7.59869910E+00  7.59869910E+00 -1.51973982E+01
  7.59869910E+00  7.59869910E+00 -1.51973982E+01  7.59869910E+00  7.59869910E+00
 -1.51973982E+01  7.59869910E+00  7.59869910E+00 -1.51973982E+01  7.59869910E+00
  7.59869910E+00 -1.51973982E+01  7.59869910E+00  7.59869910E+00 -1.51973982E+01
  7.59869910E+00  7.59869910E+00 -1.51973982E+01  7.59869910E+00  7.59869910E+00
 -1.51973982E+01  7.59869910E+00  7.59869910E+00 -1.51973982E+01  7.59869910E+00
  7.59869910E+00 -1.51973982E+01  7.59869910E+00  7.59869910E+00 -1.51973982E+01
  7.59869910E+00  7.59869910E+00 -1.51973982E+01  7.59869910E+00  7.59869910E+00
 -1.51973982E+01  7.59869910E+00  7.59869910E+00 -1.51973982E+01  7.59869910E+00
  7.59869910E+00 -1.51973982E+01  7.59869910E+00  7.59869910E+00 -1.51973982E+01
  7.59869910E+00  7.59869910E+00 -1.51973982E+01  7.59869910E+00  7.59869910E+00
 -1.51973982E+01  7.59869910E+00  7.59869910E+00 -1.51973982E+01  7.59869910E+00
  7.59869910E+00 -1.51973982E+01  7.59869910E+00  7.59869910E+00 -1.51973982E+01
  7.59869910E+00  7.59869910E+00 -1.51973982E+01  7.59869910E+00  7.59869910E+00
 -1.51973982E+01  7.59869910E+00  7.59869910E+00 -1.51973982E+01  7.59869910E+00
  7.59869910E+00 -1.51973982E+01  7.59869910E+00  7.59869910E+00 -1.51973982E+01
  7.59869910E+00  7.59869910E+00 -1.51973982E+01  7.59869910E+00  7.59869910E+00
 -1.51973982E+01  7.59869910E+00  7.59869910E+00 -1.51973982E+01  7.59869910E+00
  7.59869910E+00 -1.51973982E+01  7.59869910E+00  7.59869910E+00 -1.51973982E+01
  7.59869910E+00  7.59869910E+00 -1.51973982E+01  7.59869910E+00  7.59869910E+00
 -1.51973982E+01  7.59869910E+00  7.59869910E+00 -1.51973982E+01  7.59869910E+00
  7.59869910E+00 -1.51973982E+01  7.59869910E+00  7.59869910E+00 -1.51973982E+01
  7.59869910E+00  7.59869910E+00 -1.51973982E+01  7.59869910E+00  7.59869910E+00
 -1.51973982E+01  7.59869910E+00  7.59869910E+00 -1.51973982E+01  7.59869910E+00
  7.59869910E+00 -1.51973982E+01  7.59869910E+00  7.59869910E+00 -1.51973982E+01
  7.59869910E+00  7.59869910E+00 -1.51973982E+01  7.59869910E+00  7.59869910E+00
 -1.51973982E+01  7.59869910E+00  7.59869910E+00 -1.51973982E+01  7.59869910E+00
  7.59869910E+00 -1.51973982E+01  7.59869910E+00  7.59869910E+00 -1.51973982E+01
  7.59869910E+00  7.59869910E+00 -1.51973982E+01  7.59869910E+00  7.59869910E+00
 -1.51973982E+01  7.59869910E+00  7.59869910E+00 -1.51973982E+01  7.59869910E+00
  7.59869910E+00 -1.51973982E+01  7.59869910E+00  7.59869910E+00 -1.51973982E+01
  7.59869910E+00  7.59869910E+00 -1.51973982E+01  7.59869910E+00  7.59869910E+00
 -1.51973982E+01  7.59869910E+00  7.59869910E+00 -1.51973982E+01  7.59869910E+00
  7.59869910E+00 -1.51973982E+01  7.59869910E+00  7.59869910E+00 -1.51973982E+01
  7.59869910E+00  7.59869910E+00 -1.51973982E+01  7.59869910E+00  7.59869910E+00
 -1.51973982E+01  7.59869910E+00  7.59869910E+00 -1.51973982E+01  7.59869910E+00
  7.59869910E+00 -1.51973982E+01  7.59869910E+00  7.59869910E+00 -1.51973982E+01
  7.59869910E+00  7.59869910E+00 -1.51973982E+01  7.59869910E+00  7.59869910E+00
 -1.51973982E+01  7.59869910E+00  7.59869910E+00 -1.51973982E+01  7.59869910E+00
  7.59869910E+00 -1.51973982E+01  7.59869910E+00  7.59869910E+00 -1.51973982E+01
  7.59869910E+00  7.59869910E+00 -1.51973982E+01  7.59869910E+00  7.59869910E+00
 -1.51973982E+01  7.59869910E+00  7.59869910E+00 -1.51973982E+01  7.59869910E+00
  7.59869910E+00 -1.51973982E+01  7.59869910E+00  7.59869910E+00 -1.51973982E+01
  7.59869910E+00  7.59869910E+00 -1.51973982E+01  7.59869910E+00  7.59869910E+00
 -1.51973982E+01  7.59869910E+00  7.59869910E+00 -1.51973982E+01  7.59869910E+00
  7.59869910E+00 -1.51973982E+01  7.59869910E+00  7.59869910E+00 -1.51973982E+01
  7.59869910E+00  7.59869910E+00 -1.51973982E+01  7.59869910E+00  7.59869910E+00
 -1.51973982E+01  7.59869910E+00  7.59869910E+00 -1.51973982E+01  7.59869910E+00
  7.59869910E+00 -1.51973982E+01  7.59869910E+00  7.59869910E+00 -1.51973982E+01
  7.59869910E+00  7.59869910E+00 -1.51973982E+01  7.59869910E+00  7.59869910E+00
 -1.51973982E+01  7.59869910E+00  7.59869910E+00 -1.51973982E+01  7.59869910E+00
  7.59869910E+00 -1.51973982E+01  7.59869910E+00  7.59869910E+00 -1.51973982E+01
  7.59869910E+00  7.59869910E+00 -1.51973982E+01  7.59869910E+00  7.59869910E+00
 -1.51973982E+01  7.59869910E+00  7.59869910E+00 -1.51973982E+01  7.59869910E+00
  7.59869910E+00 -1.51973982E+01  7.59869910E+00  7.59869910E+00 -1.51973982E+01
  7.59869910E+00  7.59869910E+00 -1.51973982E+01  7.59869910E+00  7.59869910E+00
 -1.51973982E+01  7.59869910E+00  7.59869910E+00 -1.51973982E+01  7.59869910E+00
  7.59869910E+00 -1.51973982E+01  7.59869910E+00  7.59869910E+00 -1.51973982E+01
  7.59869910E+00  7.59869910E+00 -1.51973982E+01  7.59869910E+00  7.59869910E+00
 -1.51973982E+01  7.59869910E+00  7.59869910E+00 -1.51973982E+01  7.59869910E+00
  7.59869910E+00 -1.51973982E+01  7.59869910E+00  7.59869910E+00 -1.51973982E+01
  7.59869910E+00  7.59869910E+00 -1.51973982E+01  7.59869910E+00  7.59869910E+00
 -1.51973982E+01  7.59869910E+00  7.59869910E+00 -1.51973982E+01  7.59869910E+00
  7.59869910E+00 -1.51973982E+01  7.59869910E+00  7.59869910E+00 -1.51973982E+01
  7.59869910E+00  7.59869910E+00 -1.51973982E+01  7.59869910E+00  7.59869910E+00
 -1.51973982E+01  7.59869910E+00  7.59869910E+00 -1.51973982E+01  7.59869910E+00
  7.59869910E+00 -1.51973982E+01  7.59869910E+00  7.59869910E+00 -1.51973982E+01
  7.59869910E+00  7.59869910E+00 -1.51973982E+01  7.59869910E+00  7.59869910E+00
 -1.51973982E+01  7.59869910E+00  7.59869910E+00 -1.51973982E+01  7.59869910E+00
  7.59869910E+00 -1.51973982E+01  7.59869910E+00  7.59869910E+00 -1.51973982E+01
  7.59869910E+00  7.59869910E+00 -1.51973982E+01  7.59869910E+00  7.59869910E+00
 -1.51973982E+01  7.59869910E+00  7.59869910E+00 -1.51973982E+01  7.59869910E+00
  7.59869910E+00 -1.51973982E+01  7.59869910E+00  7.59869910E+00 -1.51973982E+01
  7.59869910E+00  7.59869910E+00 -1.51973982E+01  7.59869910E+00  7.59869910E+00
 -1.51973982E+01  7.59869910E+00  7.59869910E+00 -1.51973982E+01  7.59869910E+00
  7.59869910E+00 -1.51973982E+01  7.59869910E+00  7.59869910E+00 -1.51973982E+01
  7.59869910E+00  7.59869910E+00 -1.51973982E+01  7.59869910E+00  7.59869910E+00
 -1.51973982E+01  7.59869910E+00  7.59869910E+00 -1.51973982E+01  7.59869910E+00
  7.59869910E+00 -1.51973982E+01  7.59869910E+00  7.59869910E+00 -1.51973982E+01
  7.59869910E+00  7.59869910E+00 -1.51973982E+01  7.59869910E+00  7.59869910E+00
 -1.51973982E+01  7.59869910E+00  7.59869910E+00 -1.51973982E+01  7.59869910E+00
  7.59869910E+00 -1.51973982E+01  7.59869910E+00  7.59869910E+00 -1.51973982E+01
  7.59869910E+00  7.59869910E+00 -1.51973982E+01  7.59869910E+00  7.59869910E+00
 -1.51973982E+01  7.59869910E+00  7.59869910E+00 -1.51973982E+01  7.59869910E+00
  7.59869910E+00 -1.51973982E+01  7.59869910E+00  7.59869910E+00 -1.51973982E+01
  7.59869910E+00  7.59869910E+00 -1.51973982E+01  7.59869910E+00  7.59869910E+00
 -1.51973982E+01  7.59869910E+00  7.59869910E+00 -1.51973982E+01  7.59869910E+00
  7.59869910E+00 -1.51973982E+01  7.59869910E+00  7.59869910E+00 -1.51973982E+01
  7.59869910E+00  7.59869910E+00 -1.51973982E+01  7.59869910E+00  7.59869910E+00
 -1.51973982E+01  7.59869910E+00  7.59869910E+00 -1.51973982E+01  7.59869910E+00
  7.59869910E+00 -1.51973982E+01  7.59869910E+00  7.59869910E+00 -1.51973982E+01
  7.59869910E+00  7.59869910E+00 -1.51973982E+01  7.59869910E+00  7.59869910E+00
 -1.51973982E+01  7.59869910E+00  7.59869910E+00 -1.51973982E+01  7.59869910E+00
  7.59869910E+00 -1.51973982E+01  7.59869910E+00  7.59869910E+00 -1.51973982E+01
  7.59869910E+00  7.59869910E+00 -1.51973982E+01  7.59869910E+00  7.59869910E+00
 -1.51973982E+01  7.59869910E+00  7.59869910E+00 -1.51973982E+01  7.59869910E+00
  7.59869910E+00 -1.51973982E+01  7.59869910E+00  7.59869910E+00 -1.51973982E+01
  7.59869910E+00  7.59869910E+00 -1.51973982E+01  7.59869910E+00  7.59869910E+00
 -1.51973982E+01  7.59869910E+00  7.59869910E+00 -1.51973982E+01  7.59869910E+00
  7.59869910E+00 -1.51973982E+01  7.59869910E+00  7.59869910E+00 -1.51973982E+01
  7.59869910E+00  7.59869910E+00 -1.51973982E+01  7.59869910E+00  7.59869910E+00
 -1.51973982E+01  7.59869910E+00  7.59869910E+00 -1.51973982E+01  7.59869910E+00
  7.59869910E+00 -1.51973982E+01  7.59869910E+00  7.59869910E+00 -1.51973982E+01
  7.59869910E+00  7.59869910E+00 -1.51973982E+01  7.59869910E+00  7.59869910E+00
 -1.51973982E+01  7.59869910E+00  7.59869910E+00 -1.51973982E+01  7.59869910E+00
  7.59869910E+00 -1.51973982E+01  7.59869910E+00  7.59869910E+00 -1.51973982E+01
  7.59869910E+00  7.59869910E+00 -1.51973982E+01  7.59869910E+00  7.59869910E+00
 -1.51973982E+01  7.59869910E+00  7.59869910E+00 -1.51973982E+01  7.59869910E+00
  7.59869910E+00 -1.51973982E+01  7.59869910E+00  7.59869910E+00 -1.51973982E+01
  7.59869910E+00  7.59869910E+00 -1.51973982E+01  7.59869910E+00  7.59869910E+00
 -1.51973982E+01  7.59869910E+00  7.59869910E+00 -1.51973982E+01  7.59869910E+00
  7.59869910E+00 -1.51973982E+01  7.59869910E+00  7.59869910E+00 -1.51973982E+01
  7.59869910E+00  7.59869910E+00 -1.51973982E+01  7.59869910E+00  7.59869910E+00
 -1.51973982E+01  7.59869910E+00  7.59869910E+00 -1.51973982E+01  7.59869910E+00
  7.59869910E+00 -1.51973982E+01  7.59869910E+00  7.59869910E+00 -1.51973982E+01
  7.59869910E+00  7.59869910E+00 -1.51973982E+01  7.59869910E+00  7.59869910E+00
 -1.51973982E+01  7.59869910E+00  7.59869910E+00 -1.51973982E+01  7.59869910E+00
  7.59869910E+00 -1.51973982E+01  7.59869910E+00  7.59869910E+00 -1.51973982E+01
  7.59869910E+00  7.59869910E+00 -1.51973982E+01  7.59869910E+00  7.59869910E+00
 -1.51973982E+01  7.59869910E+00  7.59869910E+00 -1.51973982E+01  7.59869910E+00
  7.59869910E+00 -1.51973982E+01  7.59869910E+00  7.59869910E+00 -1.51973982E+01
  7.59869910E+00  7.59869910E+00 -1.51973982E+01  7.59869910E+00  7.59869910E+00
 -1.51973982E+01  7.59869910E+00  7.59869910E+00 -1.51973982E+01  7.59869910E+00
  7.59869910E+00 -1.51973982E+01  7.59869910E+00  7.59869910E+00 -1.51973982E+01
  7.59869910E+00  7.59869910E+00 -1.51973982E+01  7.59869910E+00  7.59869910E+00
 -1.51973982E+01  7.59869910E+00  7.59869910E+00 -1.51973982E+01  7.59869910E+00
  7.59869910E+00 -1.51973982E+01  7.59869910E+00  7.59869910E+00 -1.51973982E+01
  7.59869910E+00  7.59869910E+00 -1.51973982E+01  7.59869910E+00  7.59869910E+00
 -1.51973982E+01  7.59869910E+00  7.59869910E+00 -1.51973982E+01  7.59869910E+00
  7.59869910E+00 -1.51973982E+01  7.59869910E+00  7.59869910E+00 -1.51973982E+01
  7.59869910E+00  7.59869910E+00 -1.51973982E+01  7.59869910E+00  7.59869910E+00
 -1.51973982E+01  7.59869910E+00  7.59869910E+00 -1.51973982E+01  7.59869910E+00
  7.59869910E+00 -1.51973982E+01  7.59869910E+00  7.59869910E+00 -1.51973982E+01
  7.59869910E+00  7.59869910E+00 -1.51973982E+01  7.59869910E+00  7.59869910E+00
 -1.51973982E+01  7.59869910E+00  7.59869910E+00 -1.51973982E+01  7.59869910E+00
  7.59869910E+00 -1.51973982E+01  7.59869910E+00  7.59869910E+00 -1.51973982E+01
  7.59869910E+00  7.59869910E+00 -1.51973982E+01  7.59869910E+00  7.59869910E+00
 -1.51973982E+01  7.59869910E+00  7.59869910E+00 -1.51973982E+01  7.59869910E+00
  7.59869910E+00 -1.51973982E+01  7.59869910E+00  7.59869910E+00 -1.51973982E+01
  7.59869910E+00  7.59869910E+00 -1.51973982E+01  7.59869910E+00  7.59869910E+00
 -1.51973982E+01  7.59869910E+00  7.59869910E+00 -1.51973982E+01  7.59869910E+00
  7.59869910E+00 -1.51973982E+01  7.59869910E+00  7.59869910E+00 -1.51973982E+01
  7.59869910E+00  7.59869910E+00 -1.51973982E+01  7.59869910E+00  7.59869910E+00
 -1.51973982E+01  7.59869910E+00  7.59869910E+00 -1.51973982E+01  7.59869910E+00
  7.59869910E+00 -1.51973982E+01  7.59869910E+00  7.59869910E+00 -1.51973982E+01
  7.59869910E+00  7.59869910E+00 -1.51973982E+01  7.59869910E+00  7.59869910E+00
 -1.51973982E+01  7.59869910E+00  7.59869910E+00 -1.51973982E+01  7.59869910E+00
  7.59869910E+00 -1.51973982E+01  7.59869910E+00  7.59869910E+00 -1.51973982E+01
  7.59869910E+00  7.59869910E+00 -1.51973982E+01  7.59869910E+00  7.59869910E+00
 -1.51973982E+01  7.59869910E+00  7.59869910E+00 -1.51973982E+01  7.59869910E+00
  7.59869910E+00 -1.51973982E+01  7.59869910E+00  7.59869910E+00 -1.51973982E+01
  7.59869910E+00  7.59869910E+00 -1.51973982E+01  7.59869910E+00  7.59869910E+00
 -1.51973982E+01  7.59869910E+00  7.59869910E+00 -1.51973982E+01  7.59869910E+00
  7.59869910E+00 -1.51973982E+01  7.59869910E+00  7.59869910E+00 -1.51973982E+01
  7.59869910E+00  7.59869910E+00 -1.51973982E+01  7.59869910E+00  7.59869910E+00
 -1.51973982E+01  7.59869910E+00  7.59869910E+00 -1.51973982E+01  7.59869910E+00
  7.59869910E+00 -1.51973982E+01  7.59869910E+00  7.59869910E+00 -1.51973982E+01
  7.59869910E+00  7.59869910E+00 -1.51973982E+01  7.59869910E+00  7.59869910E+00
 -1.51973982E+01  7.59869910E+00  7.59869910E+00 -1.51973982E+01  7.59869910E+00
  7.59869910E+00 -1.51973982E+01  7.59869910E+00  7.59869910E+00 -1.51973982E+01
  7.59869910E+00  7.59869910E+00 -1.51973982E+01  7.59869910E+00  7.59869910E+00
 -1.51973982E+01  7.59869910E+00  7.59869910E+00 -1.51973982E+01  7.59869910E+00
  7.59869910E+00 -1.51973982E+01  7.59869910E+00  7.59869910E+00 -1.51973982E+01
  7.59869910E+00  7.59869910E+00 -1.51973982E+01  7.59869910E+00  7.59869910E+00
 -1.51973982E+01  7.59869910E+00  7.59869910E+00 -1.51973982E+01  7.59869910E+00
  7.59869910E+00 -1.51973982E+01  7.59869910E+00  7.59869910E+00 -1.51973982E+01
  7.59869910E+00  7.59869910E+00 -1.51973982E+01  7.59869910E+00  7.59869910E+00
 -1.51973982E+01  7.59869910E+00  7.59869910E+00 -1.51973982E+01  7.59869910E+00
  7.59869910E+00 -1.51973982E+01  7.59869910E+00  7.59869910E+00 -1.51973982E+01
  7.59869910E+00  7.59869910E+00 -1.51973982E+01  7.59869910E+00  7.59869910E+00
 -1.51973982E+01  7.59869910E+00  7.59869910E+00 -1.51973982E+01  7.59869910E+00
  7.59869910E+00 -1.51973982E+01  7.59869910E+00  7.59869910E+00 -1.51973982E+01
  7.59869910E+00  7.59869910E+00 -1.51973982E+01  7.59869910E+00  7.59869910E+00
 -1.51973982E+01  7.59869910E+00  7.59869910E+00 -1.51973982E+01  7.59869910E+00
  7.59869910E+00 -1.51973982E+01  7.59869910E+00  7.59869910E+00 -1.51973982E+01
  7.59869910E+00  7.59869910E+00 -1.51973982E+01  7.59869910E+00  7.59869910E+00
 -1.51973982E+01  7.59869910E+00  7.59869910E+00 -1.51973982E+01  7.59869910E+00
  7.59869910E+00 -1.51973982E+01  7.59869910E+00  7.59869910E+00 -1.51973982E+01
  7.59869910E+00  7.59869910E+00 -1.51973982E+01  7.59869910E+00  7.59869910E+00
 -1.51973982E+01  7.59869910E+00  7.59869910E+00 -1.51973982E+01  7.59869910E+00
  7.59869910E+00 -1.51973982E+01  7.59869910E+00  7.59869910E+00 -1.51973982E+01
  7.59869910E+00  7.59869910E+00 -1.51973982E+01  7.59869910E+00  7.59869910E+00
 -1.51973982E+01  7.59869910E+00  7.59869910E+00 -1.51973982E+01  7.59869910E+00
  7.59869910E+00 -1.51973982E+01  7.59869910E+00  7.59869910E+00 -1.51973982E+01
  7.59869910E+00  7.59869910E+00 -1.51973982E+01  7.59869910E+00  7.59869910E+00
 -1.51973982E+01  7.59869910E+00  7.59869910E+00 -1.51973982E+01  7.59869910E+00
  7.59869910E+00 -1.51973982E+01  7.59869910E+00  7.59869910E+00 -1.51973982E+01
  7.59869910E+00  7.59869910E+00 -1.51973982E+01  7.59869910E+00  7.59869910E+00
 -1.51973982E+01  7.59869910E+00  7.59869910E+00 -1.51973982E+01  7.59869910E+00
  7.59869910E+00 -1.51973982E+01  7.59869910E+00  7.59869910E+00 -1.51973982E+01
  7.59869910E+00  7.59869910E+00 -1.51973982E+01  7.59869910E+00  7.59869910E+00
 -1.51973982E+01  7.59869910E+00  7.59869910E+00 -1.51973982E+01  7.59869910E+00
  7.59869910E+00 -1.51973982E+01  7.59869910E+00  7.59869910E+00 -1.51973982E+01
  7.59869910E+00  7.59869910E+00 -1.51973982E+01  7.59869910E+00  7.59869910E+00
 -1.51973982E+01  7.59869910E+00  7.59869910E+00 -1.51973982E+01  7.59869910E+00
  7.59869910E+00 -1.51973982E+01  7.59869910E+00  7.59869910E+00 -1.51973982E+01
  7.59869910E+00  7.59869910E+00 -1.51973982E+01  7.59869910E+00  7.59869910E+00
 -1.51973982E+01  7.59869910E+00  7.59869910E+00 -1.51973982E+01  7.59869910E+00
  7.59869910E+00 -1.51973982E+01  7.59869910E+00  7.59869910E+00 -1.51973982E+01
  7.59869910E+00  7.59869910E+00 -1.51973982E+01  7.59869910E+00  7.59869910E+00
 -1.51973982E+01  7.59869910E+00  7.59869910E+00 -1.51973982E+01  7.59869910E+00
  7.59869910E+00 -1.51973982E+01  7.59869910E+00  7.59869910E+00 -1.51973982E+01
  7.59869910E+00  7.59869910E+00 -1.51973982E+01  7.59869910E+00  7.59869910E+00
 -1.51973982E+01  7.59869910E+00  7.59869910E+00 -1.51973982E+01  7.59869910E+00
  7.59869910E+00 -1.51973982E+01  7.59869910E+00  7.59869910E+00 -1.51973982E+01
  7.59869910E+00  7.59869910E+00 -1.51973982E+01  7.59869910E+00  7.59869910E+00
 -1.51973982E+01  7.59869910E+00  7.59869910E+00 -1.51973982E+01  7.59869910E+00
  7.59869910E+00 -1.51973982E+01  7.59869910E+00  7.59869910E+00 -1.51973982E+01
  7.59869910E+00  7.59869910E+00 -1.51973982E+01  7.59869910E+00  7.59869910E+00
 -1.51973982E+01  7.59869910E+00  7.59869910E+00 -1.51973982E+01  7.59869910E+00
  7.59869910E+00 -1.51973982E+01  7.59869910E+00  7.59869910E+00 -1.51973982E+01
  7.59869910E+00  7.59869910E+00 -1.51973982E+01  7.59869910E+00  7.59869910E+00
 -1.51973982E+01  7.59869910E+00  7.59869910E+00 -1.51973982E+01  7.59869910E+00
  7.59869910E+00 -1.51973982E+01  7.59869910E+00  7.59869910E+00 -1.51973982E+01
  7.59869910E+00  7.59869910E+00 -1.51973982E+01  7.59869910E+00  7.59869910E+00
 -1.51973982E+01  7.59869910E+00  7.59869910E+00 -1.51973982E+01  7.59869910E+00
  7.59869910E+00 -1.51973982E+01  7.59869910E+00  7.59869910E+00 -1.51973982E+01
  7.59869910E+00  7.59869910E+00 -1.51973982E+01  7.59869910E+00  7.59869910E+00
 -1.51973982E+01  7.59869910E+00  7.59869910E+00 -1.51973982E+01  7.59869910E+00
  7.59869910E+00 -1.51973982E+01  7.59869910E+00  7.59869910E+00 -1.51973982E+01
  7.59869910E+00  7.59869910E+00 -1.51973982E+01  7.59869910E+00  7.59869910E+00
 -1.51973982E+01  7.59869910E+00  7.59869910E+00 -1.51973982E+01  7.59869910E+00
  7.59869910E+00 -1.51973982E+01  7.59869910E+00  7.59869910E+00 -1.51973982E+01
  7.59869910E+00  7.59869910E+00 -1.51973982E+01  7.59869910E+00  7.59869910E+00
 -1.51973982E+01  7.59869910E+00  7.59869910E+00 -1.51973982E+01  7.59869910E+00
  7.59869910E+00 -1.51973982E+01  7.59869910E+00  7.59869910E+00 -1.51973982E+01
  7.59869910E+00  7.59869910E+00 -1.51973982E+01  7.59869910E+00  7.59869910E+00
 -1.51973982E+01  7.59869910E+00  7.59869910E+00 -1.51973982E+01  7.59869910E+00
  7.59869910E+00 -1.51973982E+01  7.59869910E+00  7.59869910E+00 -1.51973982E+01
  7.59869910E+00  7.59869910E+00 -1.51973982E+01  7.59869910E+00  7.59869910E+00
 -1.51973982E+01  7.59869910E+00  7.59869910E+00 -1.51973982E+01  7.59869910E+00
  7.59869910E+00 -1.51973982E+01  7.59869910E+00  7.59869910E+00 -1.51973982E+01
  7.59869910E+00  7.59869910E+00 -1.51973982E+01  7.59869910E+00  7.59869910E+00
 -1.51973982E+01  7.59869910E+00  7.59869910E+00 -1.51973982E+01  7.59869910E+00
  7.59869910E+00 -1.51973982E+01  7.59869910E+00  7.59869910E+00 -1.51973982E+01
  7.59869910E+00  7.59869910E+00 -1.51973982E+01  7.59869910E+00  7.59869910E+00
 -1.51973982E+01  7.59869910E+00  7.59869910E+00 -1.51973982E+01  7.59869910E+00
  7.59869910E+00 -1.51973982E+01  7.59869910E+00  7.59869910E+00 -1.51973982E+01
  7.59869910E+00  7.59869910E+00 -1.51973982E+01  7.59869910E+00  7.59869910E+00
 -1.51973982E+01  7.59869910E+00  7.59869910E+00 -1.51973982E+01  7.59869910E+00
  7.59869910E+00 -1.51973982E+01  7.59869910E+00  7.59869910E+00 -1.51973982E+01
  7.59869910E+00  7.59869910E+00 -1.51973982E+01  7.59869910E+00  7.59869910E+00
 -1.51973982E+01  7.59869910E+00  7.59869910E+00 -1.51973982E+01  7.59869910E+00
  7.59869910E+00 -1.51973982E+01  7.59869910E+00  7.59869910E+00 -1.51973982E+01
  7.59869910E+00  7.59869910E+00 -1.51973982E+01  7.59869910E+00  7.59869910E+00
 -1.51973982E+01  7.59869910E+00  7.59869910E+00 -1.51973982E+01  7.59869910E+00
  7.59869910E+00 -1.51973982E+01  7.59869910E+00  7.59869910E+00 -1.51973982E+01
  7.59869910E+00  7.59869910E+00 -1.51973982E+01  7.59869910E+00  7.59869910E+00
 -1.51973982E+01  7.59869910E+00  7.59869910E+00 -1.51973982E+01  7.59869910E+00
  7.59869910E+00 -1.51973982E+01  7.59869910E+00  7.59869910E+00 -1.51973982E+01
  7.59869910E+00  7.59869910E+00 -1.51973982E+01  7.59869910E+00  7.59869910E+00
 -1.51973982E+01  7.59869910E+00  7.59869910E+00 -1.51973982E+01  7.59869910E+00
  7.59869910E+00 -1.51973982E+01  7.59869910E+00  7.59869910E+00 -1.51973982E+01
  7.59869910E+00  7.59869910E+00 -1.51973982E+01  7.59869910E+00  7.59869910E+00
 -1.51973982E+01  7.59869910E+00  7.59869910E+00 -1.51973982E+01  7.59869910E+00
  7.59869910E+00 -1.51973982E+01  7.59869910E+00  7.59869910E+00 -1.51973982E+01
  7.59869910E+00  7.59869910E+00 -1.51973982E+01  7.59869910E+00  7.59869910E+00
 -1.51973982E+01  7.59869910E+00  7.59869910E+00 -1.51973982E+01  7.59869910E+00
  7.59869910E+00 -1.51973982E+01  7.59869910E+00  7.59869910E+00 -1.51973982E+01
  7.59869910E+00  7.59869910E+00 -1.51973982E+01  7.59869910E+00  7.59869910E+00
 -1.51973982E+01  7.59869910E+00  7.59869910E+00 -1.51973982E+01  7.59869910E+00
  7.59869910E+00 -1.51973982E+01  7.59869910E+00  7.59869910E+00 -1.51973982E+01
  7.59869910E+00  7.59869910E+00 -1.51973982E+01  7.59869910E+00  7.59869910E+00
 -1.51973982E+01  7.59869910E+00  7.59869910E+00 -1.51973982E+01  7.59869910E+00
  7.59869910E+00 -1.51973982E+01  7.59869910E+00  7.59869910E+00 -1.51973982E+01
  7.59869910E+00  7.59869910E+00 -1.51973982E+01  7.59869910E+00  7.59869910E+00
 -1.51973982E+01  7.59869910E+00  7.59869910E+00 -1.51973982E+01  7.59869910E+00
  7.59869910E+00 -1.51973982E+01  7.59869910E+00  7.59869910E+00 -1.51973982E+01
  7.59869910E+00  7.59869910E+00 -1.51973982E+01  7.59869910E+00  7.59869910E+00
 -1.51973982E+01  7.59869910E+00  7.59869910E+00 -1.51973982E+01  7.59869910E+00
  7.59869910E+00 -1.51973982E+01  7.59869910E+00  7.59869910E+00 -1.51973982E+01
  7.59869910E+00  7.59869910E+00 -1.51973982E+01  7.59869910E+00  7.59869910E+00
 -1.51973982E+01  7.59869910E+00  7.59869910E+00 -1.51973982E+01  7.59869910E+00
  7.59869910E+00 -1.51973982E+01  7.59869910E+00  7.59869910E+00 -1.51973982E+01
  7.59869910E+00  7.59869910E+00 -1.51973982E+01  7.59869910E+00  7.59869910E+00
 -1.51973982E+01  7.59869910E+00  7.59869910E+00 -1.51973982E+01  7.59869910E+00
  7.59869910E+00 -1.51973982E+01  7.59869910E+00  7.59869910E+00 -1.51973982E+01
  7.59869910E+00  7.59869910E+00 -1.51973982E+01  7.59869910E+00  7.59869910E+00
 -1.51973982E+01  7.59869910E+00  7.59869910E+00 -1.51973982E+01  7.59869910E+00
  7.59869910E+00 -1.51973982E+01  7.59869910E+00  7.59869910E+00 -1.51973982E+01
  7.59869910E+00  7.59869910E+00 -1.51973982E+01  7.59869910E+00  7.59869910E+00
 -1.51973982E+01  7.59869910E+00  7.59869910E+00 -1.51973982E+01  7.59869910E+00
  7.59869910E+00 -1.51973982E+01  7.59869910E+00  7.59869910E+00 -1.51973982E+01
  7.59869910E+00  7.59869910E+00 -1.51973982E+01  7.59869910E+00  7.59869910E+00
 -1.51973982E+01  7.59869910E+00  7.59869910E+00 -1.51973982E+01  7.59869910E+00
  7.59869910E+00 -1.51973982E+01  7.59869910E+00  7.59869910E+00 -1.51973982E+01
  7.59869910E+00  7.59869910E+00 -1.51973982E+01  7.59869910E+00  7.59869910E+00
 -1.51973982E+01  7.59869910E+00  7.59869910E+00 -1.51973982E+01  7.59869910E+00
  7.59869910E+00 -1.51973982E+01  7.59869910E+00  7.59869910E+00 -1.51973982E+01
  7.59869910E+00  7.59869910E+00 -1.51973982E+01  7.59869910E+00  7.59869910E+00
 -1.51973982E+01  7.59869910E+00  7.59869910E+00 -1.51973982E+01  7.59869910E+00
  7.59869910E+00 -1.51973982E+01  7.59869910E+00  7.59869910E+00 -1.51973982E+01
  7.59869910E+00  7.59869910E+00 -1.51973982E+01  7.59869910E+00  7.59869910E+00
 -1.51973982E+01  7.59869910E+00  7.59869910E+00 -1.51973982E+01  7.59869910E+00
  7.59869910E+00 -1.51973982E+01  7.59869910E+00  7.59869910E+00 -1.51973982E+01
  7.59869910E+00  7.59869910E+00 -1.51973982E+01  7.59869910E+00  7.59869910E+00
 -1.51973982E+01  7.59869910E+00  7.59869910E+00 -1.51973982E+01  7.59869910E+00
  7.59869910E+00 -1.51973982E+01  7.59869910E+00  7.59869910E+00 -1.51973982E+01
  7.59869910E+00  7.59869910E+00 -1.51973982E+01  7.59869910E+00  7.59869910E+00
 -1.51973982E+01  7.59869910E+00  7.59869910E+00 -1.51973982E+01  7.59869910E+00
  7.59869910E+00 -1.51973982E+01  7.59869910E+00  7.59869910E+00 -1.51973982E+01
  7.59869910E+00  7.59869910E+00 -1.51973982E+01  7.59869910E+00  7.59869910E+00
 -1.51973982E+01  7.59869910E+00  7.59869910E+00 -1.51973982E+01  7.59869910E+00
  7.59869910E+00 -1.51973982E+01  7.59869910E+00  7.59869910E+00 -1.51973982E+01
  7.59869910E+00  7.59869910E+00 -1.51973982E+01  7.59869910E+00  7.59869910E+00
 -1.51973982E+01  7.59869910E+00  7.59869910E+00 -1.51973982E+01  7.59869910E+00
  7.59869910E+00 -1.51973982E+01  7.59869910E+00  7.59869910E+00 -1.51973982E+01
  7.59869910E+00  7.59869910E+00 -1.51973982E+01  7.59869910E+00  7.59869910E+00
 -1.51973982E+01  7.59869910E+00  7.59869910E+00 -1.51973982E+01  7.59869910E+00
  7.59869910E+00 -1.51973982E+01  7.59869910E+00  7.59869910E+00 -1.51973982E+01
  7.59869910E+00  7.59869910E+00 -1.51973982E+01  7.59869910E+00  7.59869910E+00
 -1.51973982E+01  7.59869910E+00  7.59869910E+00 -1.51973982E+01  7.59869910E+00
  7.59869910E+00 -1.51973982E+01  7.59869910E+00  7.59869910E+00 -1.51973982E+01
  7.59869910E+00  7.59869910E+00 -1.51973982E+01  7.59869910E+00  7.59869910E+00
 -1.51973982E+01  7.59869910E+00  7.59869910E+00 -1.51973982E+01  7.59869910E+00
  7.59869910E+00 -1.51973982E+01  7.59869910E+00  7.59869910E+00 -1.51973982E+01
  7.59869910E+00  7.59869910E+00 -1.51973982E+01  7.59869910E+00  7.59869910E+00
 -1.51973982E+01  7.59869910E+00  7.59869910E+00 -1.51973982E+01  7.59869910E+00
  7.59869910E+00 -1.51973982E+01  7.59869910E+00  7.59869910E+00 -1.51973982E+01
  7.59869910E+00  7.59869910E+00 -1.51973982E+01  7.59869910E+00  7.59869910E+00
 -1.51973982E+01  7.59869910E+00  7.59869910E+00 -1.51973982E+01  7.59869910E+00
  7.59869910E+00 -1.51973982E+01  7.59869910E+00  7.59869910E+00 -1.51973982E+01
  7.59869910E+00  7.59869910E+00 -1.51973982E+01  7.59869910E+00  7.59869910E+00
 -1.51973982E+01  7.59869910E+00  7.59869910E+00 -1.51973982E+01  7.59869910E+00
  7.59869910E+00 -1.51973982E+01  7.59869910E+00  7.59869910E+00 -1.51973982E+01
  7.59869910E+00  7.59869910E+00 -1.51973982E+01  7.59869910E+00  7.59869910E+00
 -1.51973982E+01  7.59869910E+00  7.59869910E+00 -1.51973982E+01  7.59869910E+00
  7.59869910E+00 -1.51973982E+01  7.59869910E+00  7.59869910E+00 -1.51973982E+01
  7.59869910E+00  7.59869910E+00 -1.51973982E+01  7.59869910E+00  7.59869910E+00
 -1.51973982E+01  7.59869910E+00  7.59869910E+00 -1.51973982E+01  7.59869910E+00
  7.59869910E+00 -1.51973982E+01  7.59869910E+00  7.59869910E+00 -1.51973982E+01
  7.59869910E+00  7.59869910E+00 -1.51973982E+01  7.59869910E+00  7.59869910E+00
 -1.51973982E+01  7.59869910E+00  7.59869910E+00 -1.51973982E+01  7.59869910E+00
  7.59869910E+00 -1.51973982E+01  7.59869910E+00  7.59869910E+00 -1.51973982E+01
  7.59869910E+00  7.59869910E+00 -1.51973982E+01  7.59869910E+00  7.59869910E+00
 -1.51973982E+01  7.59869910E+00  7.59869910E+00 -1.51973982E+01  7.59869910E+00
  7.59869910E+00 -1.51973982E+01  7.59869910E+00  7.59869910E+00 -1.51973982E+01
  7.59869910E+00  7.59869910E+00 -1.51973982E+01  7.59869910E+00  7.59869910E+00
 -1.51973982E+01  7.59869910E+00  7.59869910E+00 -1.51973982E+01  7.59869910E+00
  7.59869910E+00 -1.51973982E+01  7.59869910E+00  7.59869910E+00 -1.51973982E+01
  7.59869910E+00  7.59869910E+00 -1.51973982E+01  7.59869910E+00  7.59869910E+00
 -1.51973982E+01  7.59869910E+00  7.59869910E+00 -1.51973982E+01  7.59869910E+00
  7.59869910E+00 -1.51973982E+01  7.59869910E+00  7.59869910E+00 -1.51973982E+01
  7.59869910E+00  7.59869910E+00 -1.51973982E+01  7.59869910E+00  7.59869910E+00
 -1.51973982E+01  7.59869910E+00  7.59869910E+00 -1.51973982E+01  7.59869910E+00
  7.59869910E+00 -1.51973982E+01  7.59869910E+00  7.59869910E+00 -1.51973982E+01
  7.59869910E+00  7.59869910E+00 -1.51973982E+01  7.59869910E+00  7.59869910E+00
 -1.51973982E+01  7.59869910E+00  7.59869910E+00 -1.51973982E+01  7.59869910E+00
  7.59869910E+00 -1.51973982E+01  7.59869910E+00  7.59869910E+00 -1.51973982E+01
  7.59869910E+00  7.59869910E+00 -1.51973982E+01  7.59869910E+00  7.59869910E+00
 -1.51973982E+01  7.59869910E+00  7.59869910E+00 -1.51973982E+01  7.59869910E+00
  7.59869910E+00 -1.51973982E+01  7.59869910E+00  7.59869910E+00 -1.51973982E+01
  7.59869910E+00  7.59869910E+00 -1.51973982E+01  7.59869910E+00  7.59869910E+00
 -1.51973982E+01  7.59869910E+00  7.59869910E+00 -1.51973982E+01  7.59869910E+00
  7.59869910E+00 -1.51973982E+01  7.59869910E+00  7.59869910E+00 -1.51973982E+01
  7.59869910E+00  7.59869910E+00 -1.51973982E+01  7.59869910E+00  7.59869910E+00
 -1.51973982E+01  7.59869910E+00  7.59869910E+00 -1.51973982E+01  7.59869910E+00
  7.59869910E+00 -1.51973982E+01  7.59869910E+00  7.59869910E+00 -1.51973982E+01
  7.59869910E+00  7.59869910E+00 -1.51973982E+01  7.59869910E+00  7.59869910E+00
 -1.51973982E+01  7.59869910E+00  7.59869910E+00 -1.51973982E+01  7.59869910E+00
  7.59869910E+00 -1.51973982E+01  7.59869910E+00  7.59869910E+00 -1.51973982E+01
  7.59869910E+00  7.59869910E+00 -1.51973982E+01  7.59869910E+00  7.59869910E+00
 -1.51973982E+01  7.59869910E+00  7.59869910E+00 -1.51973982E+01  7.59869910E+00
  7.59869910E+00 -1.51973982E+01  7.59869910E+00  7.59869910E+00 -1.51973982E+01
  7.59869910E+00  7.59869910E+00 -1.51973982E+01  7.59869910E+00  7.59869910E+00
 -1.51973982E+01  7.59869910E+00  7.59869910E+00 -1.51973982E+01  7.59869910E+00
  7.59869910E+00 -1.51973982E+01  7.59869910E+00  7.59869910E+00 -1.51973982E+01
  7.59869910E+00  7.59869910E+00 -1.51973982E+01  7.59869910E+00  7.59869910E+00
 -1.51973982E+01  7.59869910E+00  7.59869910E+00 -1.51973982E+01  7.59869910E+00
  7.59869910E+00 -1.51973982E+01  7.59869910E+00  7.59869910E+00 -1.51973982E+01
  7.59869910E+00  7.59869910E+00 -1.51973982E+01  7.59869910E+00  7.59869910E+00
 -1.51973982E+01  7.59869910E+00  7.59869910E+00 -1.51973982E+01  7.59869910E+00
  7.59869910E+00 -1.51973982E+01  7.59869910E+00  7.59869910E+00 -1.51973982E+01
  7.59869910E+00  7.59869910E+00 -1.51973982E+01  7.59869910E+00  7.59869910E+00
 -1.51973982E+01  7.59869910E+00  7.59869910E+00 -1.51973982E+01  7.59869910E+00
  7.59869910E+00 -1.51973982E+01  7.59869910E+00  7.59869910E+00 -1.51973982E+01
  7.59869910E+00  7.59869910E+00 -1.51973982E+01  7.59869910E+00  7.59869910E+00
 -1.51973982E+01  7.59869910E+00  7.59869910E+00 -1.51973982E+01  7.59869910E+00
  7.59869910E+00 -1.51973982E+01  7.59869910E+00  7.59869910E+00 -1.51973982E+01
  7.59869910E+00  7.59869910E+00 -1.51973982E+01  7.59869910E+00  7.59869910E+00
 -1.51973982E+01  7.59869910E+00  7.59869910E+00 -1.51973982E+01  7.59869910E+00
  7.59869910E+00 -1.51973982E+01  7.59869910E+00  7.59869910E+00 -1.51973982E+01
  7.59869910E+00  7.59869910E+00 -1.51973982E+01  7.59869910E+00  7.59869910E+00
 -1.51973982E+01  7.59869910E+00  7.59869910E+00 -1.51973982E+01  7.59869910E+00
  7.59869910E+00 -1.51973982E+01  7.59869910E+00  7.59869910E+00 -1.51973982E+01
  7.59869910E+00  7.59869910E+00 -1.51973982E+01  7.59869910E+00  7.59869910E+00
 -1.51973982E+01  7.59869910E+00  7.59869910E+00 -1.51973982E+01  7.59869910E+00
  7.59869910E+00 -1.51973982E+01  7.59869910E+00  7.59869910E+00 -1.51973982E+01
  7.59869910E+00  7.59869910E+00 -1.51973982E+01  7.59869910E+00  7.59869910E+00
 -1.51973982E+01  7.59869910E+00  7.59869910E+00 -1.51973982E+01  7.59869910E+00
  7.59869910E+00 -1.51973982E+01  7.59869910E+00  7.59869910E+00 -1.51973982E+01
  7.59869910E+00  7.59869910E+00 -1.51973982E+01  7.59869910E+00  7.59869910E+00
 -1.51973982E+01  7.59869910E+00  7.59869910E+00 -1.51973982E+01  7.59869910E+00
  7.59869910E+00 -1.51973982E+01  7.59869910E+00  7.59869910E+00 -1.51973982E+01
  7.59869910E+00  7.59869910E+00 -1.51973982E+01  7.59869910E+00  7.59869910E+00
 -1.51973982E+01  7.59869910E+00  7.59869910E+00 -1.51973982E+01  7.59869910E+00
  7.59869910E+00 -1.51973982E+01  7.59869910E+00  7.59869910E+00 -1.51973982E+01
  7.59869910E+00  7.59869910E+00 -1.51973982E+01  7.59869910E+00  7.59869910E+00
 -1.51973982E+01  7.59869910E+00  7.59869910E+00 -1.51973982E+01  7.59869910E+00
  7.59869910E+00 -1.51973982E+01  7.59869910E+00  7.59869910E+00 -1.51973982E+01
  7.59869910E+00  7.59869910E+00 -1.51973982E+01  7.59869910E+00  7.59869910E+00
 -1.51973982E+01  7.59869910E+00  7.59869910E+00 -1.51973982E+01  7.59869910E+00
  7.59869910E+00 -1.51973982E+01  7.59869910E+00  7.59869910E+00 -1.51973982E+01
  7.59869910E+00  7.59869910E+00 -1.51973982E+01  7.59869910E+00  7.59869910E+00
 -1.51973982E+01  7.59869910E+00  7.59869910E+00 -1.51973982E+01  7.59869910E+00
  7.59869910E+00 -1.51973982E+01  7.59869910E+00  7.59869910E+00 -1.51973982E+01
  7.59869910E+00  7.59869910E+00 -1.51973982E+01  7.59869910E+00  7.59869910E+00
 -1.51973982E+01  7.59869910E+00  7.59869910E+00 -1.51973982E+01  7.59869910E+00
  7.59869910E+00 -1.51973982E+01  7.59869910E+00  7.59869910E+00 -1.51973982E+01
  7.59869910E+00  7.59869910E+00 -1.51973982E+01  7.59869910E+00  7.59869910E+00
 -1.51973982E+01  7.59869910E+00  7.59869910E+00 -1.51973982E+01  7.59869910E+00
  7.59869910E+00 -1.51973982E+01  7.59869910E+00  7.59869910E+00 -1.51973982E+01
  7.59869910E+00  7.59869910E+00 -1.51973982E+01  7.59869910E+00  7.59869910E+00
 -1.51973982E+01  7.59869910E+00  7.59869910E+00 -1.51973982E+01  7.59869910E+00
  7.59869910E+00 -1.51973982E+01  7.59869910E+00  7.59869910E+00 -1.51973982E+01
  7.59869910E+00  7.59869910E+00 -1.51973982E+01  7.59869910E+00  7.59869910E+00
 -1.51973982E+01  7.59869910E+00  7.59869910E+00 -1.51973982E+01  7.59869910E+00
  7.59869910E+00 -1.51973982E+01  7.59869910E+00  7.59869910E+00 -1.51973982E+01
  7.59869910E+00  7.59869910E+00 -1.51973982E+01  7.59869910E+00  7.59869910E+00
 -1.51973982E+01  7.59869910E+00  7.59869910E+00 -1.51973982E+01  7.59869910E+00
  7.59869910E+00 -1.51973982E+01  7.59869910E+00  7.59869910E+00 -1.51973982E+01
  7.59869910E+00  7.59869910E+00 -1.51973982E+01  7.59869910E+00  7.59869910E+00
 -1.51973982E+01  7.59869910E+00  7.59869910E+00 -1.51973982E+01  7.59869910E+00
  7.59869910E+00 -1.51973982E+01  7.59869910E+00  7.59869910E+00 -1.51973982E+01
  7.59869910E+00  7.59869910E+00 -1.51973982E+01  7.59869910E+00  7.59869910E+00
 -1.51973982E+01  7.59869910E+00  7.59869910E+00 -1.51973982E+01  7.59869910E+00
  7.59869910E+00 -1.51973982E+01  7.59869910E+00  7.59869910E+00 -1.51973982E+01
  7.59869910E+00  7.59869910E+00 -1.51973982E+01  7.59869910E+00  7.59869910E+00
 -1.51973982E+01  7.59869910E+00  7.59869910E+00 -1.51973982E+01  7.59869910E+00
  7.59869910E+00 -1.51973982E+01  7.59869910E+00  7.59869910E+00 -1.51973982E+01
  7.59869910E+00  7.59869910E+00 -1.51973982E+01  7.59869910E+00  7.59869910E+00
 -1.51973982E+01  7.59869910E+00  7.59869910E+00 -1.51973982E+01  7.59869910E+00
  7.59869910E+00 -1.51973982E+01  7.59869910E+00  7.59869910E+00 -1.51973982E+01
  7.59869910E+00  7.59869910E+00 -1.51973982E+01  7.59869910E+00  7.59869910E+00
 -1.51973982E+01  7.59869910E+00  7.59869910E+00 -1.51973982E+01  7.59869910E+00
  7.59869910E+00 -1.51973982E+01  7.59869910E+00  7.59869910E+00 -1.51973982E+01
  7.59869910E+00  7.59869910E+00 -1.51973982E+01  7.59869910E+00  7.59869910E+00
 -1.51973982E+01  7.59869910E+00  7.59869910E+00 -1.51973982E+01  7.59869910E+00
  7.59869910E+00 -1.51973982E+01  7.59869910E+00  7.59869910E+00 -1.51973982E+01
  7.59869910E+00  7.59869910E+00 -1.51973982E+01  7.59869910E+00  7.59869910E+00
 -1.51973982E+01  7.59869910E+00  7.59869910E+00 -1.51973982E+01  7.59869910E+00
  7.59869910E+00 -1.51973982E+01  7.59869910E+00  7.59869910E+00 -1.51973982E+01
  7.59869910E+00  7.59869910E+00 -1.51973982E+01  7.59869910E+00  7.59869910E+00
 -1.51973982E+01  7.59869910E+00  7.59869910E+00 -1.51973982E+01  7.59869910E+00
  7.59869910E+00 -1.51973982E+01  7.59869910E+00  7.59869910E+00 -1.51973982E+01
  7.59869910E+00  7.59869910E+00 -1.51973982E+01  7.59869910E+00  7.59869910E+00
 -1.51973982E+01  7.59869910E+00  7.59869910E+00 -1.51973982E+01  7.59869910E+00
  7.59869910E+00 -1.51973982E+01  7.59869910E+00  7.59869910E+00 -1.51973982E+01
  7.59869910E+00  7.59869910E+00 -1.51973982E+01  7.59869910E+00  7.59869910E+00
 -1.51973982E+01  7.59869910E+00  7.59869910E+00 -1.51973982E+01  7.59869910E+00
  7.59869910E+00 -1.51973982E+01  7.59869910E+00  7.59869910E+00 -1.51973982E+01
  7.59869910E+00  7.59869910E+00 -1.51973982E+01  7.59869910E+00  7.59869910E+00
 -1.51973982E+01  7.59869910E+00  7.59869910E+00 -1.51973982E+01  7.59869910E+00
  7.59869910E+00 -1.51973982E+01  7.59869910E+00  7.59869910E+00 -1.51973982E+01
  7.59869910E+00  7.59869910E+00 -1.51973982E+01  7.59869910E+00  7.59869910E+00
 -1.51973982E+01  7.59869910E+00  7.59869910E+00 -1.51973982E+01  7.59869910E+00
  7.59869910E+00 -1.51973982E+01  7.59869910E+00  7.59869910E+00 -1.51973982E+01
  7.59869910E+00  7.59869910E+00 -1.51973982E+01  7.59869910E+00  7.59869910E+00
 -1.51973982E+01  7.59869910E+00  7.59869910E+00 -1.51973982E+01  7.59869910E+00
  7.59869910E+00 -1.51973982E+01  7.59869910E+00  7.59869910E+00 -1.51973982E+01
  7.59869910E+00  7.59869910E+00 -1.51973982E+01  7.59869910E+00  7.59869910E+00
 -1.51973982E+01  7.59869910E+00  7.59869910E+00 -1.51973982E+01  7.59869910E+00
  7.59869910E+00 -1.51973982E+01  7.59869910E+00  7.59869910E+00 -1.51973982E+01
  7.59869910E+00  7.59869910E+00 -1.51973982E+01  7.59869910E+00  7.59869910E+00
 -1.51973982E+01  7.59869910E+00  7.59869910E+00 -1.51973982E+01  7.59869910E+00
  7.59869910E+00 -1.51973982E+01  7.59869910E+00  7.59869910E+00 -1.51973982E+01
  7.59869910E+00  7.59869910E+00 -1.51973982E+01  7.59869910E+00  7.59869910E+00
 -1.51973982E+01  7.59869910E+00  7.59869910E+00 -1.51973982E+01  7.59869910E+00
  7.59869910E+00 -1.51973982E+01  7.59869910E+00  7.59869910E+00 -1.51973982E+01
  7.59869910E+00  7.59869910E+00 -1.51973982E+01  7.59869910E+00  7.59869910E+00
 -1.51973982E+01  7.59869910E+00  7.59869910E+00 -1.51973982E+01  7.59869910E+00
  7.59869910E+00 -1.51973982E+01  7.59869910E+00  7.59869910E+00 -1.51973982E+01
  7.59869910E+00  7.59869910E+00 -1.51973982E+01  7.59869910E+00  7.59869910E+00
 -1.51973982E+01  7.59869910E+00  7.59869910E+00 -1.51973982E+01  7.59869910E+00
  7.59869910E+00 -1.51973982E+01  7.59869910E+00  7.59869910E+00 -1.51973982E+01
  7.59869910E+00  7.59869910E+00 -1.51973982E+01  7.59869910E+00  7.59869910E+00
 -1.51973982E+01  7.59869910E+00  7.59869910E+00 -1.51973982E+01  7.59869910E+00
  7.59869910E+00 -1.51973982E+01  7.59869910E+00  7.59869910E+00 -1.51973982E+01
  7.59869910E+00  7.59869910E+00 -1.51973982E+01  7.59869910E+00  7.59869910E+00
 -1.51973982E+01  7.59869910E+00  7.59869910E+00 -1.51973982E+01  7.59869910E+00
  7.59869910E+00 -1.51973982E+01  7.59869910E+00  7.59869910E+00 -1.51973982E+01
  7.59869910E+00  7.59869910E+00 -1.51973982E+01  7.59869910E+00  7.59869910E+00
 -1.51973982E+01  7.59869910E+00  7.59869910E+00 -1.51973982E+01  7.59869910E+00
  7.59869910E+00 -1.51973982E+01  7.59869910E+00  7.59869910E+00 -1.51973982E+01
  7.59869910E+00  7.59869910E+00 -1.51973982E+01  7.59869910E+00  7.59869910E+00
 -1.51973982E+01  7.59869910E+00  7.59869910E+00 -1.51973982E+01  7.59869910E+00
  7.59869910E+00 -1.51973982E+01  7.59869910E+00  7.59869910E+00 -1.51973982E+01
  7.59869910E+00  7.59869910E+00 -1.51973982E+01  7.59869910E+00  7.59869910E+00
 -1.51973982E+01  7.59869910E+00  7.59869910E+00 -1.51973982E+01  7.59869910E+00
  7.59869910E+00 -1.51973982E+01  7.59869910E+00  7.59869910E+00 -1.51973982E+01
  7.59869910E+00  7.59869910E+00 -1.51973982E+01  7.59869910E+00  7.59869910E+00
 -1.51973982E+01  7.59869910E+00  7.59869910E+00 -1.51973982E+01  7.59869910E+00
  7.59869910E+00 -1.51973982E+01  7.59869910E+00  7.59869910E+00 -1.51973982E+01
  7.59869910E+00  7.59869910E+00 -1.51973982E+01  7.59869910E+00  7.59869910E+00
 -1.51973982E+01  7.59869910E+00  7.59869910E+00 -1.51973982E+01  7.59869910E+00
  7.59869910E+00 -1.51973982E+01  7.59869910E+00  7.59869910E+00 -1.51973982E+01
  7.59869910E+00  7.59869910E+00 -1.51973982E+01  7.59869910E+00  7.59869910E+00
 -1.51973982E+01  7.59869910E+00  7.59869910E+00 -1.51973982E+01  7.59869910E+00
  7.59869910E+00 -1.51973982E+01  7.59869910E+00  7.59869910E+00 -1.51973982E+01
  7.59869910E+00  7.59869910E+00 -1.51973982E+01  7.59869910E+00  7.59869910E+00
 -1.51973982E+01  7.59869910E+00  7.59869910E+00 -1.51973982E+01  7.59869910E+00
  7.59869910E+00 -1.51973982E+01  7.59869910E+00  7.59869910E+00 -1.51973982E+01
  7.59869910E+00  7.59869910E+00 -1.51973982E+01  7.59869910E+00  7.59869910E+00
 -1.51973982E+01  7.59869910E+00  7.59869910E+00 -1.51973982E+01  7.59869910E+00
  7.59869910E+00 -1.51973982E+01  7.59869910E+00  7.59869910E+00 -1.51973982E+01
  7.59869910E+00  7.59869910E+00 -1.51973982E+01  7.59869910E+00  7.59869910E+00
 -1.51973982E+01  7.59869910E+00  7.59869910E+00 -1.51973982E+01  7.59869910E+00
  7.59869910E+00 -1.51973982E+01  7.59869910E+00  7.59869910E+00 -1.51973982E+01
  7.59869910E+00  7.59869910E+00 -1.51973982E+01  7.59869910E+00  7.59869910E+00
 -1.51973982E+01  7.59869910E+00  7.59869910E+00 -1.51973982E+01  7.59869910E+00
  7.59869910E+00 -1.51973982E+01  7.59869910E+00  7.59869910E+00 -1.51973982E+01
  7.59869910E+00  7.59869910E+00 -1.51973982E+01  7.59869910E+00  7.59869910E+00
 -1.51973982E+01  7.59869910E+00  7.59869910E+00 -1.51973982E+01  7.59869910E+00
  7.59869910E+00 -1.51973982E+01  7.59869910E+00  7.59869910E+00 -1.51973982E+01
  7.59869910E+00  7.59869910E+00 -1.51973982E+01  7.59869910E+00  7.59869910E+00
 -1.51973982E+01  7.59869910E+00  7.59869910E+00 -1.51973982E+01  7.59869910E+00
  7.59869910E+00 -1.51973982E+01  7.59869910E+00  7.59869910E+00 -1.51973982E+01
  7.59869910E+00  7.59869910E+00 -1.51973982E+01  7.59869910E+00  7.59869910E+00
 -1.51973982E+01  7.59869910E+00  7.59869910E+00 -1.51973982E+01  7.59869910E+00
  7.59869910E+00 -1.51973982E+01  7.59869910E+00  7.59869910E+00 -1.51973982E+01
  7.59869910E+00  7.59869910E+00 -1.51973982E+01  7.59869910E+00  7.59869910E+00
 -1.51973982E+01  7.59869910E+00  7.59869910E+00 -1.51973982E+01  7.59869910E+00
  7.59869910E+00 -1.51973982E+01  7.59869910E+00  7.59869910E+00 -1.51973982E+01
  7.59869910E+00  7.59869910E+00 -1.51973982E+01  7.59869910E+00  7.59869910E+00
 -1.51973982E+01  7.59869910E+00  7.59869910E+00 -1.51973982E+01  7.59869910E+00
  7.59869910E+00 -1.51973982E+01  7.59869910E+00  7.59869910E+00 -1.51973982E+01
  7.59869910E+00  7.59869910E+00 -1.51973982E+01  7.59869910E+00  7.59869910E+00
 -1.51973982E+01  7.59869910E+00  7.59869910E+00 -1.51973982E+01  7.59869910E+00
  7.59869910E+00 -1.51973982E+01  7.59869910E+00  7.59869910E+00 -1.51973982E+01
  7.59869910E+00  7.59869910E+00 -1.51973982E+01  7.59869910E+00  7.59869910E+00
 -1.51973982E+01  7.59869910E+00  7.59869910E+00 -1.51973982E+01  7.59869910E+00
  7.59869910E+00 -1.51973982E+01  7.59869910E+00  7.59869910E+00 -1.51973982E+01
  7.59869910E+00  7.59869910E+00 -1.51973982E+01  7.59869910E+00  7.59869910E+00
 -1.51973982E+01  7.59869910E+00  7.59869910E+00 -1.51973982E+01  7.59869910E+00
  7.59869910E+00 -1.51973982E+01  7.59869910E+00  7.59869910E+00 -1.51973982E+01
  7.59869910E+00  7.59869910E+00 -1.51973982E+01  7.59869910E+00  7.59869910E+00
 -1.51973982E+01  7.59869910E+00  7.59869910E+00 -1.51973982E+01  7.59869910E+00
  7.59869910E+00 -1.51973982E+01  7.59869910E+00  7.59869910E+00 -1.51973982E+01
  7.59869910E+00  7.59869910E+00 -1.51973982E+01  7.59869910E+00  7.59869910E+00
 -1.51973982E+01  7.59869910E+00  7.59869910E+00 -1.51973982E+01  7.59869910E+00
  7.59869910E+00 -1.51973982E+01  7.59869910E+00  7.59869910E+00 -1.51973982E+01
  7.59869910E+00  7.59869910E+00 -1.51973982E+01  7.59869910E+00  7.59869910E+00
 -1.51973982E+01  7.59869910E+00  7.59869910E+00 -1.51973982E+01  7.59869910E+00
  7.59869910E+00 -1.51973982E+01  7.59869910E+00  7.59869910E+00 -1.51973982E+01
  7.59869910E+00  7.59869910E+00 -1.51973982E+01  7.59869910E+00  7.59869910E+00
 -1.51973982E+01  7.59869910E+00  7.59869910E+00 -1.51973982E+01  7.59869910E+00
  7.59869910E+00 -1.51973982E+01  7.59869910E+00  7.59869910E+00 -1.51973982E+01
  7.59869910E+00  7.59869910E+00 -1.51973982E+01  7.59869910E+00  7.59869910E+00
 -1.51973982E+01  7.59869910E+00  7.59869910E+00 -1.51973982E+01  7.59869910E+00
  7.59869910E+00 -1.51973982E+01  7.59869910E+00  7.59869910E+00 -1.51973982E+01
  7.59869910E+00  7.59869910E+00 -1.51973982E+01  7.59869910E+00  7.59869910E+00
 -1.51973982E+01  7.59869910E+00  7.59869910E+00 -1.51973982E+01  7.59869910E+00
  7.59869910E+00 -1.51973982E+01  7.59869910E+00  7.59869910E+00 -1.51973982E+01
  7.59869910E+00  7.59869910E+00 -1.51973982E+01  7.59869910E+00  7.59869910E+00
 -1.51973982E+01  7.59869910E+00  7.59869910E+00 -1.51973982E+01  7.59869910E+00
  7.59869910E+00 -1.51973982E+01  7.59869910E+00  7.59869910E+00 -1.51973982E+01
  7.59869910E+00  7.59869910E+00 -1.51973982E+01  7.59869910E+00  7.59869910E+00
 -1.51973982E+01  7.59869910E+00  7.59869910E+00 -1.51973982E+01  7.59869910E+00
  7.59869910E+00 -1.51973982E+01  7.59869910E+00  7.59869910E+00 -1.51973982E+01
  7.59869910E+00  7.59869910E+00 -1.51973982E+01  7.59869910E+00  7.59869910E+00
 -1.51973982E+01  7.59869910E+00  7.59869910E+00 -1.51973982E+01  7.59869910E+00
  7.59869910E+00 -1.51973982E+01  7.59869910E+00  7.59869910E+00 -1.51973982E+01
  7.59869910E+00  7.59869910E+00 -1.51973982E+01  7.59869910E+00  7.59869910E+00
 -1.51973982E+01  7.59869910E+00  7.59869910E+00 -1.51973982E+01  7.59869910E+00
  7.59869910E+00 -1.51973982E+01  7.59869910E+00  7.59869910E+00 -1.51973982E+01
  7.59869910E+00  7.59869910E+00 -1.51973982E+01  7.59869910E+00  7.59869910E+00
 -1.51973982E+01  7.59869910E+00  7.59869910E+00 -1.51973982E+01  7.59869910E+00
  7.59869910E+00 -1.51973982E+01  7.59869910E+00  7.59869910E+00 -1.51973982E+01
  7.59869910E+00  7.59869910E+00 -1.51973982E+01  7.59869910E+00  7.59869910E+00
 -1.51973982E+01  7.59869910E+00  7.59869910E+00 -1.51973982E+01  7.59869910E+00
  7.59869910E+00 -1.51973982E+01  7.59869910E+00  7.59869910E+00 -1.51973982E+01
  7.59869910E+00  7.59869910E+00 -1.51973982E+01  7.59869910E+00  7.59869910E+00
 -1.51973982E+01  7.59869910E+00  7.59869910E+00 -1.51973982E+01  7.59869910E+00
  7.59869910E+00 -1.51973982E+01  7.59869910E+00  7.59869910E+00 -1.51973982E+01
  7.59869910E+00  7.59869910E+00 -1.51973982E+01  7.59869910E+00  7.59869910E+00
 -1.51973982E+01  7.59869910E+00  7.59869910E+00 -1.51973982E+01  7.59869910E+00
  7.59869910E+00 -1.51973982E+01  7.59869910E+00  7.59869910E+00 -1.51973982E+01
  7.59869910E+00  7.59869910E+00 -1.51973982E+01  7.59869910E+00  7.59869910E+00
 -1.51973982E+01  7.59869910E+00  7.59869910E+00 -1.51973982E+01  7.59869910E+00
  7.59869910E+00 -1.51973982E+01  7.59869910E+00  7.59869910E+00 -1.51973982E+01
  7.59869910E+00  7.59869910E+00 -1.51973982E+01  7.59869910E+00  7.59869910E+00
 -1.51973982E+01  7.59869910E+00  7.59869910E+00 -1.51973982E+01  7.59869910E+00
  7.59869910E+00 -1.51973982E+01  7.59869910E+00  7.59869910E+00 -1.51973982E+01
  7.59869910E+00  7.59869910E+00 -1.51973982E+01  7.59869910E+00  7.59869910E+00
 -1.51973982E+01  7.59869910E+00  7.59869910E+00 -1.51973982E+01  7.59869910E+00
  7.59869910E+00 -1.51973982E+01  7.59869910E+00  7.59869910E+00 -1.51973982E+01
  7.59869910E+00  7.59869910E+00 -1.51973982E+01  7.59869910E+00  7.59869910E+00
 -1.51973982E+01  7.59869910E+00  7.59869910E+00 -1.51973982E+01  7.59869910E+00
  7.59869910E+00 -1.51973982E+01  7.59869910E+00  7.59869910E+00 -1.51973982E+01
  7.59869910E+00  7.59869910E+00 -1.51973982E+01  7.59869910E+00  7.59869910E+00
 -1.51973982E+01  7.59869910E+00  7.59869910E+00 -1.51973982E+01  7.59869910E+00
  7.59869910E+00 -1.51973982E+01  7.59869910E+00  7.59869910E+00 -1.51973982E+01
  7.59869910E+00  7.59869910E+00 -1.51973982E+01  7.59869910E+00  7.59869910E+00
 -1.51973982E+01  7.59869910E+00  7.59869910E+00 -1.51973982E+01  7.59869910E+00
  7.59869910E+00 -1.51973982E+01  7.59869910E+00  7.59869910E+00 -1.51973982E+01
  7.59869910E+00  7.59869910E+00 -1.51973982E+01  7.59869910E+00  7.59869910E+00
 -1.51973982E+01  7.59869910E+00  7.59869910E+00 -1.51973982E+01  7.59869910E+00
  7.59869910E+00 -1.51973982E+01  7.59869910E+00  7.59869910E+00 -1.51973982E+01
  7.59869910E+00  7.59869910E+00 -1.51973982E+01  7.59869910E+00  7.59869910E+00
 -1.51973982E+01  7.59869910E+00  7.59869910E+00 -1.51973982E+01  7.59869910E+00
  7.59869910E+00 -1.51973982E+01  7.59869910E+00  7.59869910E+00 -1.51973982E+01
  7.59869910E+00  7.59869910E+00 -1.51973982E+01  7.59869910E+00  7.59869910E+00
 -1.51973982E+01  7.59869910E+00  7.59869910E+00 -1.51973982E+01  7.59869910E+00
  7.59869910E+00 -1.51973982E+01  7.59869910E+00  7.59869910E+00 -1.51973982E+01
  7.59869910E+00  7.59869910E+00 -1.51973982E+01  7.59869910E+00  7.59869910E+00
 -1.51973982E+01  7.59869910E+00  7.59869910E+00 -1.51973982E+01  7.59869910E+00
  7.59869910E+00 -1.51973982E+01  7.59869910E+00  7.59869910E+00 -1.51973982E+01
  7.59869910E+00  7.59869910E+00 -1.51973982E+01  7.59869910E+00  7.59869910E+00
 -1.51973982E+01  7.59869910E+00  7.59869910E+00 -1.51973982E+01  7.59869910E+00
  7.59869910E+00 -1.51973982E+01  7.59869910E+00  7.59869910E+00 -1.51973982E+01
  7.59869910E+00  7.59869910E+00 -1.51973982E+01  7.59869910E+00  7.59869910E+00
 -1.51973982E+01  7.59869910E+00  7.59869910E+00 -1.51973982E+01  7.59869910E+00
  7.59869910E+00 -1.51973982E+01  7.59869910E+00  7.59869910E+00 -1.51973982E+01
  7.59869910E+00  7.59869910E+00 -1.51973982E+01  7.59869910E+00  7.59869910E+00
 -1.51973982E+01  7.59869910E+00  7.59869910E+00 -1.51973982E+01  7.59869910E+00
  7.59869910E+00 -1.51973982E+01  7.59869910E+00  7.59869910E+00 -1.51973982E+01
  7.59869910E+00  7.59869910E+00 -1.51973982E+01  7.59869910E+00  7.59869910E+00
 -1.51973982E+01  7.59869910E+00  7.59869910E+00 -1.51973982E+01  7.59869910E+00
  7.59869910E+00 -1.51973982E+01  7.59869910E+00  7.59869910E+00 -1.51973982E+01
  7.59869910E+00  7.59869910E+00 -1.51973982E+01  7.59869910E+00  7.59869910E+00
 -1.51973982E+01  7.59869910E+00  7.59869910E+00 -1.51973982E+01  7.59869910E+00
  7.59869910E+00 -1.51973982E+01  7.59869910E+00  7.59869910E+00 -1.51973982E+01
  7.59869910E+00  7.59869910E+00 -1.51973982E+01  7.59869910E+00  7.59869910E+00
 -1.51973982E+01  7.59869910E+00  7.59869910E+00 -1.51973982E+01  7.59869910E+00
  7.59869910E+00 -1.51973982E+01  7.59869910E+00  7.59869910E+00 -1.51973982E+01
  7.59869910E+00  7.59869910E+00 -1.51973982E+01  7.59869910E+00  7.59869910E+00
 -1.51973982E+01  7.59869910E+00  7.59869910E+00 -1.51973982E+01  7.59869910E+00
  7.59869910E+00 -1.51973982E+01  7.59869910E+00  7.59869910E+00 -1.51973982E+01
  7.59869910E+00  7.59869910E+00 -1.51973982E+01  7.59869910E+00  7.59869910E+00
 -1.51973982E+01  7.59869910E+00  7.59869910E+00 -1.51973982E+01  7.59869910E+00
  7.59869910E+00 -1.51973982E+01  7.59869910E+00  7.59869910E+00 -1.51973982E+01
  7.59869910E+00  7.59869910E+00 -1.51973982E+01  7.59869910E+00  7.59869910E+00
 -1.51973982E+01  7.59869910E+00  7.59869910E+00 -1.51973982E+01  7.59869910E+00
  7.59869910E+00 -1.51973982E+01  7.59869910E+00  7.59869910E+00 -1.51973982E+01
  7.59869910E+00  7.59869910E+00 -1.51973982E+01  7.59869910E+00  7.59869910E+00
 -1.51973982E+01  7.59869910E+00  7.59869910E+00 -1.51973982E+01  7.59869910E+00
  7.59869910E+00 -1.51973982E+01  7.59869910E+00  7.59869910E+00 -1.51973982E+01
  7.59869910E+00  7.59869910E+00 -1.51973982E+01  7.59869910E+00  7.59869910E+00
 -1.51973982E+01  7.59869910E+00  7.59869910E+00 -1.51973982E+01  7.59869910E+00
  7.59869910E+00 -1.51973982E+01  7.59869910E+00  7.59869910E+00 -1.51973982E+01
  7.59869910E+00  7.59869910E+00 -1.51973982E+01  7.59869910E+00  7.59869910E+00
 -1.51973982E+01  7.59869910E+00  7.59869910E+00 -1.51973982E+01  7.59869910E+00
  7.59869910E+00 -1.51973982E+01  7.59869910E+00  7.59869910E+00 -1.51973982E+01
  7.59869910E+00  7.59869910E+00 -1.51973982E+01  7.59869910E+00  7.59869910E+00
 -1.51973982E+01  7.59869910E+00  7.59869910E+00 -1.51973982E+01  7.59869910E+00
  7.59869910E+00 -1.51973982E+01  7.59869910E+00  7.59869910E+00 -1.51973982E+01
  7.59869910E+00  7.59869910E+00 -1.51973982E+01  7.59869910E+00  7.59869910E+00
 -1.51973982E+01  7.59869910E+00  7.59869910E+00 -1.51973982E+01  7.59869910E+00
  7.59869910E+00 -1.51973982E+01  7.59869910E+00  7.59869910E+00 -1.51973982E+01
  7.59869910E+00  7.59869910E+00 -1.51973982E+01  7.59869910E+00  7.59869910E+00
 -1.51973982E+01  7.59869910E+00  7.59869910E+00 -1.51973982E+01  7.59869910E+00
  7.59869910E+00 -1.51973982E+01  7.59869910E+00  7.59869910E+00 -1.51973982E+01
  7.59869910E+00  7.59869910E+00 -1.51973982E+01  7.59869910E+00  7.59869910E+00
 -1.51973982E+01  7.59869910E+00  7.59869910E+00 -1.51973982E+01  7.59869910E+00
  7.59869910E+00 -1.51973982E+01  7.59869910E+00  7.59869910E+00 -1.51973982E+01
  7.59869910E+00  7.59869910E+00 -1.51973982E+01  7.59869910E+00  7.59869910E+00
 -1.51973982E+01  7.59869910E+00  7.59869910E+00 -1.51973982E+01  7.59869910E+00
  7.59869910E+00 -1.51973982E+01  7.59869910E+00  7.59869910E+00 -1.51973982E+01
  7.59869910E+00  7.59869910E+00 -1.51973982E+01  7.59869910E+00  7.59869910E+00
 -1.51973982E+01  7.59869910E+00  7.59869910E+00 -1.51973982E+01  7.59869910E+00
  7.59869910E+00 -1.51973982E+01  7.59869910E+00  7.59869910E+00 -1.51973982E+01
  7.59869910E+00  7.59869910E+00 -1.51973982E+01  7.59869910E+00  7.59869910E+00
 -1.51973982E+01  7.59869910E+00  7.59869910E+00 -1.51973982E+01  7.59869910E+00
  7.59869910E+00 -1.51973982E+01  7.59869910E+00  7.59869910E+00 -1.51973982E+01
  7.59869910E+00  7.59869910E+00 -1.51973982E+01  7.59869910E+00  7.59869910E+00
 -1.51973982E+01  7.59869910E+00  7.59869910E+00 -1.51973982E+01  7.59869910E+00
  7.59869910E+00 -1.51973982E+01  7.59869910E+00  7.59869910E+00 -1.51973982E+01
  7.59869910E+00  7.59869910E+00 -1.51973982E+01  7.59869910E+00  7.59869910E+00
 -1.51973982E+01  7.59869910E+00  7.59869910E+00 -1.51973982E+01  7.59869910E+00
  7.59869910E+00 -1.51973982E+01  7.59869910E+00  7.59869910E+00 -1.51973982E+01
  7.59869910E+00  7.59869910E+00 -1.51973982E+01  7.59869910E+00  7.59869910E+00
 -1.51973982E+01  7.59869910E+00  7.59869910E+00 -1.51973982E+01  7.59869910E+00
  7.59869910E+00 -1.51973982E+01  7.59869910E+00  7.59869910E+00 -1.51973982E+01
  7.59869910E+00  7.59869910E+00 -1.51973982E+01  7.59869910E+00  7.59869910E+00
 -1.51973982E+01  7.59869910E+00  7.59869910E+00 -1.51973982E+01  7.59869910E+00
  7.59869910E+00 -1.51973982E+01  7.59869910E+00  7.59869910E+00 -1.51973982E+01
  7.59869910E+00  7.59869910E+00 -1.51973982E+01  7.59869910E+00  7.59869910E+00
 -1.51973982E+01  7.59869910E+00  7.59869910E+00 -1.51973982E+01  7.59869910E+00
  7.59869910E+00 -1.51973982E+01  7.59869910E+00  7.59869910E+00 -1.51973982E+01
  7.59869910E+00  7.59869910E+00 -1.51973982E+01  7.59869910E+00  7.59869910E+00
 -1.51973982E+01  7.59869910E+00  7.59869910E+00 -1.51973982E+01  7.59869910E+00
  7.59869910E+00 -1.51973982E+01  7.59869910E+00  7.59869910E+00 -1.51973982E+01
  7.59869910E+00  7.59869910E+00 -1.51973982E+01  7.59869910E+00  7.59869910E+00
 -1.51973982E+01  7.59869910E+00  7.59869910E+00 -1.51973982E+01  7.59869910E+00
  7.59869910E+00 -1.51973982E+01  7.59869910E+00  7.59869910E+00 -1.51973982E+01
  7.59869910E+00  7.59869910E+00 -1.51973982E+01  7.59869910E+00  7.59869910E+00
 -1.51973982E+01  7.59869910E+00  7.59869910E+00 -1.51973982E+01  7.59869910E+00
  7.59869910E+00 -1.51973982E+01  7.59869910E+00  7.59869910E+00 -1.51973982E+01
  7.59869910E+00  7.59869910E+00 -1.51973982E+01  7.59869910E+00  7.59869910E+00
 -1.51973982E+01  7.59869910E+00  7.59869910E+00 -1.51973982E+01  7.59869910E+00
  7.59869910E+00 -1.51973982E+01  7.59869910E+00  7.59869910E+00 -1.51973982E+01
  7.59869910E+00  7.59869910E+00 -1.51973982E+01  7.59869910E+00  7.59869910E+00
 -1.51973982E+01  7.59869910E+00  7.59869910E+00 -1.51973982E+01  7.59869910E+00
  7.59869910E+00 -1.51973982E+01  7.59869910E+00  7.59869910E+00 -1.51973982E+01
  7.59869910E+00  7.59869910E+00 -1.51973982E+01  7.59869910E+00  7.59869910E+00
 -1.51973982E+01  7.59869910E+00  7.59869910E+00 -1.51973982E+01  7.59869910E+00
  7.59869910E+00 -1.51973982E+01  7.59869910E+00  7.59869910E+00 -1.51973982E+01
  7.59869910E+00  7.59869910E+00 -1.51973982E+01  7.59869910E+00  7.59869910E+00
 -1.51973982E+01  7.59869910E+00  7.59869910E+00 -1.51973982E+01  7.59869910E+00
  7.59869910E+00 -1.51973982E+01  7.59869910E+00  7.59869910E+00 -1.51973982E+01
  7.59869910E+00  7.59869910E+00 -1.51973982E+01  7.59869910E+00  7.59869910E+00
 -1.51973982E+01  7.59869910E+00  7.59869910E+00 -1.51973982E+01  7.59869910E+00
  7.59869910E+00 -1.51973982E+01  7.59869910E+00  7.59869910E+00 -1.51973982E+01
  7.59869910E+00  7.59869910E+00 -1.51973982E+01  7.59869910E+00  7.59869910E+00
 -1.51973982E+01  7.59869910E+00  7.59869910E+00 -1.51973982E+01  7.59869910E+00
  7.59869910E+00 -1.51973982E+01  7.59869910E+00  7.59869910E+00 -1.51973982E+01
  7.59869910E+00  7.59869910E+00 -1.51973982E+01  7.59869910E+00  7.59869910E+00
 -1.51973982E+01  7.59869910E+00  7.59869910E+00 -1.51973982E+01  7.59869910E+00
  7.59869910E+00 -1.51973982E+01  7.59869910E+00  7.59869910E+00 -1.51973982E+01
  7.59869910E+00  7.59869910E+00 -1.51973982E+01  7.59869910E+00  7.59869910E+00
 -1.51973982E+01  7.59869910E+00  7.59869910E+00 -1.51973982E+01  7.59869910E+00
  7.59869910E+00 -1.51973982E+01  7.59869910E+00  7.59869910E+00 -1.51973982E+01
  7.59869910E+00  7.59869910E+00 -1.51973982E+01  7.59869910E+00  7.59869910E+00
 -1.51973982E+01  7.59869910E+00  7.59869910E+00 -1.51973982E+01  7.59869910E+00
  7.59869910E+00 -1.51973982E+01  7.59869910E+00  7.59869910E+00 -1.51973982E+01
  7.59869910E+00  7.59869910E+00 -1.51973982E+01  7.59869910E+00  7.59869910E+00
 -1.51973982E+01  7.59869910E+00  7.59869910E+00 -1.51973982E+01  7.59869910E+00
  7.59869910E+00 -1.51973982E+01  7.59869910E+00  7.59869910E+00 -1.51973982E+01
  7.59869910E+00  7.59869910E+00 -1.51973982E+01  7.59869910E+00  7.59869910E+00
 -1.51973982E+01  7.59869910E+00  7.59869910E+00 -1.51973982E+01  7.59869910E+00
  7.59869910E+00 -1.51973982E+01  7.59869910E+00  7.59869910E+00 -1.51973982E+01
  7.59869910E+00  7.59869910E+00 -1.51973982E+01  7.59869910E+00  7.59869910E+00
 -1.51973982E+01  7.59869910E+00  7.59869910E+00 -1.51973982E+01  7.59869910E+00
  7.59869910E+00 -1.51973982E+01  7.59869910E+00  7.59869910E+00 -1.51973982E+01
  7.59869910E+00  7.59869910E+00 -1.51973982E+01  7.59869910E+00  7.59869910E+00
 -1.51973982E+01  7.59869910E+00  7.59869910E+00 -1.51973982E+01  7.59869910E+00
  7.59869910E+00 -1.51973982E+01  7.59869910E+00  7.59869910E+00 -1.51973982E+01
  7.59869910E+00  7.59869910E+00 -1.51973982E+01  7.59869910E+00  7.59869910E+00
 -1.51973982E+01  7.59869910E+00  7.59869910E+00 -1.51973982E+01  7.59869910E+00
  7.59869910E+00 -1.51973982E+01  7.59869910E+00  7.59869910E+00 -1.51973982E+01
  7.59869910E+00  7.59869910E+00 -1.51973982E+01  7.59869910E+00  7.59869910E+00
 -1.51973982E+01  7.59869910E+00  7.59869910E+00 -1.51973982E+01  7.59869910E+00
  7.59869910E+00 -1.51973982E+01  7.59869910E+00  7.59869910E+00 -1.51973982E+01
  7.59869910E+00  7.59869910E+00 -1.51973982E+01  7.59869910E+00  7.59869910E+00
 -1.51973982E+01  7.59869910E+00  7.59869910E+00 -1.51973982E+01  7.59869910E+00
  7.59869910E+00 -1.51973982E+01  7.59869910E+00  7.59869910E+00 -1.51973982E+01
  7.59869910E+00  7.59869910E+00 -1.51973982E+01  7.59869910E+00  7.59869910E+00
 -1.51973982E+01  7.59869910E+00  7.59869910E+00 -1.51973982E+01  7.59869910E+00
  7.59869910E+00 -1.51973982E+01  7.59869910E+00  7.59869910E+00 -1.51973982E+01
  7.59869910E+00  7.59869910E+00 -1.51973982E+01  7.59869910E+00  7.59869910E+00
 -1.51973982E+01  7.59869910E+00  7.59869910E+00 -1.51973982E+01  7.59869910E+00
  7.59869910E+00 -1.51973982E+01  7.59869910E+00  7.59869910E+00 -1.51973982E+01
  7.59869910E+00  7.59869910E+00 -1.51973982E+01  7.59869910E+00  7.59869910E+00
 -1.51973982E+01  7.59869910E+00  7.59869910E+00 -1.51973982E+01  7.59869910E+00
  7.59869910E+00 -1.51973982E+01  7.59869910E+00  7.59869910E+00 -1.51973982E+01
  7.59869910E+00  7.59869910E+00 -1.51973982E+01  7.59869910E+00  7.59869910E+00
 -1.51973982E+01  7.59869910E+00  7.59869910E+00 -1.51973982E+01  7.59869910E+00
  7.59869910E+00 -1.51973982E+01  7.59869910E+00  7.59869910E+00 -1.51973982E+01
  7.59869910E+00  7.59869910E+00 -1.51973982E+01  7.59869910E+00  7.59869910E+00
 -1.51973982E+01  7.59869910E+00  7.59869910E+00 -1.51973982E+01  7.59869910E+00
  7.59869910E+00 -1.51973982E+01  7.59869910E+00  7.59869910E+00 -1.51973982E+01
  7.59869910E+00  7.59869910E+00 -1.51973982E+01  7.59869910E+00  7.59869910E+00
 -1.51973982E+01  7.59869910E+00  7.59869910E+00 -1.51973982E+01  7.59869910E+00
  7.59869910E+00 -1.51973982E+01  7.59869910E+00  7.59869910E+00 -1.51973982E+01
  7.59869910E+00  7.59869910E+00 -1.51973982E+01  7.59869910E+00  7.59869910E+00
 -1.51973982E+01  7.59869910E+00  7.59869910E+00 -1.51973982E+01  7.59869910E+00
  7.59869910E+00 -1.51973982E+01  7.59869910E+00  7.59869910E+00 -1.51973982E+01
  7.59869910E+00  7.59869910E+00 -1.51973982E+01  7.59869910E+00  7.59869910E+00
 -1.51973982E+01  7.59869910E+00  7.59869910E+00 -1.51973982E+01  7.59869910E+00
  7.59869910E+00 -1.51973982E+01  7.59869910E+00  7.59869910E+00 -1.51973982E+01
  7.59869910E+00  7.59869910E+00 -1.51973982E+01  7.59869910E+00  7.59869910E+00
 -1.51973982E+01  7.59869910E+00  7.59869910E+00 -1.51973982E+01  7.59869910E+00
  7.59869910E+00 -1.51973982E+01  7.59869910E+00  7.59869910E+00 -1.51973982E+01
  7.59869910E+00  7.59869910E+00 -1.51973982E+01  7.59869910E+00  7.59869910E+00
 -1.51973982E+01  7.59869910E+00  7.59869910E+00 -1.51973982E+01  7.59869910E+00
  7.59869910E+00 -1.51973982E+01  7.59869910E+00  7.59869910E+00 -1.51973982E+01
  7.59869910E+00  7.59869910E+00 -1.51973982E+01  7.59869910E+00  7.59869910E+00
 -1.51973982E+01  7.59869910E+00  7.59869910E+00 -1.51973982E+01  7.59869910E+00
  7.59869910E+00 -1.51973982E+01  7.59869910E+00  7.59869910E+00 -1.51973982E+01
  7.59869910E+00  7.59869910E+00 -1.51973982E+01  7.59869910E+00  7.59869910E+00
 -1.51973982E+01  7.59869910E+00  7.59869910E+00 -1.51973982E+01  7.59869910E+00
  7.59869910E+00 -1.51973982E+01  7.59869910E+00  7.59869910E+00 -1.51973982E+01
  7.59869910E+00  7.59869910E+00 -1.51973982E+01  7.59869910E+00  7.59869910E+00
 -1.51973982E+01  7.59869910E+00  7.59869910E+00 -1.51973982E+01  7.59869910E+00
  7.59869910E+00 -1.51973982E+01  7.59869910E+00  7.59869910E+00 -1.51973982E+01
  7.59869910E+00  7.59869910E+00 -1.51973982E+01  7.59869910E+00  7.59869910E+00
 -1.51973982E+01  7.59869910E+00  7.59869910E+00 -1.51973982E+01  7.59869910E+00
  7.59869910E+00 -1.51973982E+01  7.59869910E+00  7.59869910E+00 -1.51973982E+01
  7.59869910E+00  7.59869910E+00 -1.51973982E+01  7.59869910E+00  7.59869910E+00
 -1.51973982E+01  7.59869910E+00  7.59869910E+00 -1.51973982E+01  7.59869910E+00
  7.59869910E+00 -1.51973982E+01  7.59869910E+00  7.59869910E+00 -1.51973982E+01
  7.59869910E+00  7.59869910E+00 -1.51973982E+01  7.59869910E+00  7.59869910E+00
 -1.51973982E+01  7.59869910E+00  7.59869910E+00 -1.51973982E+01  7.59869910E+00
  7.59869910E+00 -1.51973982E+01  7.59869910E+00  7.59869910E+00 -1.51973982E+01
  7.59869910E+00  7.59869910E+00 -1.51973982E+01  7.59869910E+00  7.59869910E+00
 -1.51973982E+01  7.59869910E+00  7.59869910E+00 -1.51973982E+01  7.59869910E+00
  7.59869910E+00 -1.51973982E+01  7.59869910E+00  7.59869910E+00 -1.51973982E+01
  7.59869910E+00  7.59869910E+00 -1.51973982E+01  7.59869910E+00  7.59869910E+00
 -1.51973982E+01  7.59869910E+00  7.59869910E+00 -1.51973982E+01  7.59869910E+00
  7.59869910E+00 -1.51973982E+01  7.59869910E+00  7.59869910E+00 -1.51973982E+01
  7.59869910E+00  7.59869910E+00 -1.51973982E+01  7.59869910E+00  7.59869910E+00
 -1.51973982E+01  7.59869910E+00  7.59869910E+00 -1.51973982E+01  7.59869910E+00
  7.59869910E+00 -1.51973982E+01  7.59869910E+00  7.59869910E+00 -1.51973982E+01
  7.59869910E+00  7.59869910E+00 -1.51973982E+01  7.59869910E+00  7.59869910E+00
 -1.51973982E+01  7.59869910E+00  7.59869910E+00 -1.51973982E+01  7.59869910E+00
  7.59869910E+00 -1.51973982E+01  7.59869910E+00  7.59869910E+00 -1.51973982E+01
  7.59869910E+00  7.59869910E+00 -1.51973982E+01  7.59869910E+00  7.59869910E+00
 -1.51973982E+01  7.59869910E+00  7.59869910E+00 -1.51973982E+01  7.59869910E+00
  7.59869910E+00 -1.51973982E+01  7.59869910E+00  7.59869910E+00 -1.51973982E+01
  7.59869910E+00  7.59869910E+00 -1.51973982E+01  7.59869910E+00  7.59869910E+00
 -1.51973982E+01  7.59869910E+00  7.59869910E+00 -1.51973982E+01  7.59869910E+00
  7.59869910E+00 -1.51973982E+01  7.59869910E+00  7.59869910E+00 -1.51973982E+01
  7.59869910E+00  7.59869910E+00 -1.51973982E+01  7.59869910E+00  7.59869910E+00
 -1.51973982E+01  7.59869910E+00  7.59869910E+00 -1.51973982E+01  7.59869910E+00
  7.59869910E+00 -1.51973982E+01  7.59869910E+00  7.59869910E+00 -1.51973982E+01
  7.59869910E+00  7.59869910E+00 -1.51973982E+01  7.59869910E+00  7.59869910E+00
 -1.51973982E+01  7.59869910E+00  7.59869910E+00 -1.51973982E+01  7.59869910E+00
  7.59869910E+00 -1.51973982E+01  7.59869910E+00  7.59869910E+00 -1.51973982E+01
  7.59869910E+00  7.59869910E+00 -1.51973982E+01  7.59869910E+00  7.59869910E+00
 -1.51973982E+01  7.59869910E+00  7.59869910E+00 -1.51973982E+01  7.59869910E+00
  7.59869910E+00 -1.51973982E+01  7.59869910E+00  7.59869910E+00 -1.51973982E+01
  7.59869910E+00  7.59869910E+00 -1.51973982E+01  7.59869910E+00  7.59869910E+00
 -1.51973982E+01  7.59869910E+00  7.59869910E+00 -1.51973982E+01  7.59869910E+00
  7.59869910E+00 -1.51973982E+01  7.59869910E+00  7.59869910E+00 -1.51973982E+01
  7.59869910E+00  7.59869910E+00 -1.51973982E+01  7.59869910E+00  7.59869910E+00
 -1.51973982E+01  7.59869910E+00  7.59869910E+00 -1.51973982E+01  7.59869910E+00
  7.59869910E+00 -1.51973982E+01  7.59869910E+00  7.59869910E+00 -1.51973982E+01
  7.59869910E+00  7.59869910E+00 -1.51973982E+01  7.59869910E+00  7.59869910E+00
 -1.51973982E+01  7.59869910E+00  7.59869910E+00 -1.51973982E+01  7.59869910E+00
  7.59869910E+00 -1.51973982E+01  7.59869910E+00  7.59869910E+00 -1.51973982E+01
  7.59869910E+00  7.59869910E+00 -1.51973982E+01  7.59869910E+00  7.59869910E+00
 -1.51973982E+01  7.59869910E+00  7.59869910E+00 -1.51973982E+01  7.59869910E+00
  7.59869910E+00 -1.51973982E+01  7.59869910E+00  7.59869910E+00 -1.51973982E+01
  7.59869910E+00  7.59869910E+00 -1.51973982E+01  7.59869910E+00  7.59869910E+00
 -1.51973982E+01  7.59869910E+00  7.59869910E+00 -1.51973982E+01  7.59869910E+00
  7.59869910E+00 -1.51973982E+01  7.59869910E+00  7.59869910E+00 -1.51973982E+01
  7.59869910E+00  7.59869910E+00 -1.51973982E+01  7.59869910E+00  7.59869910E+00
 -1.51973982E+01  7.59869910E+00  7.59869910E+00 -1.51973982E+01  7.59869910E+00
  7.59869910E+00 -1.51973982E+01  7.59869910E+00  7.59869910E+00 -1.51973982E+01
  7.59869910E+00  7.59869910E+00 -1.51973982E+01  7.59869910E+00  7.59869910E+00
 -1.51973982E+01  7.59869910E+00  7.59869910E+00 -1.51973982E+01  7.59869910E+00
  7.59869910E+00 -1.51973982E+01  7.59869910E+00  7.59869910E+00 -1.51973982E+01
  7.59869910E+00  7.59869910E+00 -1.51973982E+01  7.59869910E+00  7.59869910E+00
 -1.51973982E+01  7.59869910E+00  7.59869910E+00 -1.51973982E+01  7.59869910E+00
  7.59869910E+00 -1.51973982E+01  7.59869910E+00  7.59869910E+00 -1.51973982E+01
  7.59869910E+00  7.59869910E+00 -1.51973982E+01  7.59869910E+00  7.59869910E+00
 -1.51973982E+01  7.59869910E+00  7.59869910E+00 -1.51973982E+01  7.59869910E+00
  7.59869910E+00 -1.51973982E+01  7.59869910E+00  7.59869910E+00 -1.51973982E+01
  7.59869910E+00  7.59869910E+00 -1.51973982E+01  7.59869910E+00  7.59869910E+00
 -1.51973982E+01  7.59869910E+00  7.59869910E+00 -1.51973982E+01  7.59869910E+00
  7.59869910E+00 -1.51973982E+01  7.59869910E+00  7.59869910E+00 -1.51973982E+01
  7.59869910E+00  7.59869910E+00 -1.51973982E+01  7.59869910E+00  7.59869910E+00
 -1.51973982E+01  7.59869910E+00  7.59869910E+00 -1.51973982E+01  7.59869910E+00
  7.59869910E+00 -1.51973982E+01  7.59869910E+00  7.59869910E+00 -1.51973982E+01
  7.59869910E+00  7.59869910E+00 -1.51973982E+01  7.59869910E+00  7.59869910E+00
 -1.51973982E+01  7.59869910E+00  7.59869910E+00 -1.51973982E+01  7.59869910E+00
  7.59869910E+00 -1.51973982E+01  7.59869910E+00  7.59869910E+00 -1.51973982E+01
  7.59869910E+00  7.59869910E+00 -1.51973982E+01  7.59869910E+00  7.59869910E+00
 -1.51973982E+01  7.59869910E+00  7.59869910E+00 -1.51973982E+01  7.59869910E+00
  7.59869910E+00 -1.51973982E+01  7.59869910E+00  7.59869910E+00 -1.51973982E+01
  7.59869910E+00  7.59869910E+00 -1.51973982E+01  7.59869910E+00  7.59869910E+00
 -1.51973982E+01  7.59869910E+00  7.59869910E+00 -1.51973982E+01  7.59869910E+00
  7.59869910E+00 -1.51973982E+01  7.59869910E+00  7.59869910E+00 -1.51973982E+01
  7.59869910E+00  7.59869910E+00 -1.51973982E+01  7.59869910E+00  7.59869910E+00
 -1.51973982E+01  7.59869910E+00  7.59869910E+00 -1.51973982E+01  7.59869910E+00
  7.59869910E+00 -1.51973982E+01  7.59869910E+00  7.59869910E+00 -1.51973982E+01
  7.59869910E+00  7.59869910E+00 -1.51973982E+01  7.59869910E+00  7.59869910E+00
 -1.51973982E+01  7.59869910E+00  7.59869910E+00 -1.51973982E+01  7.59869910E+00
  7.59869910E+00 -1.51973982E+01  7.59869910E+00  7.59869910E+00 -1.51973982E+01
  7.59869910E+00  7.59869910E+00 -1.51973982E+01  7.59869910E+00  7.59869910E+00
 -1.51973982E+01  7.59869910E+00  7.59869910E+00 -1.51973982E+01  7.59869910E+00
  7.59869910E+00 -1.51973982E+01  7.59869910E+00  7.59869910E+00 -1.51973982E+01
  7.59869910E+00  7.59869910E+00 -1.51973982E+01  7.59869910E+00  7.59869910E+00
 -1.51973982E+01  7.59869910E+00  7.59869910E+00 -1.51973982E+01  7.59869910E+00
  7.59869910E+00 -1.51973982E+01  7.59869910E+00  7.59869910E+00 -1.51973982E+01
  7.59869910E+00  7.59869910E+00 -1.51973982E+01  7.59869910E+00  7.59869910E+00
 -1.51973982E+01  7.59869910E+00  7.59869910E+00 -1.51973982E+01  7.59869910E+00
  7.59869910E+00 -1.51973982E+01  7.59869910E+00  7.59869910E+00 -1.51973982E+01
  7.59869910E+00  7.59869910E+00 -1.51973982E+01  7.59869910E+00  7.59869910E+00
 -1.51973982E+01  7.59869910E+00  7.59869910E+00 -1.51973982E+01  7.59869910E+00
  7.59869910E+00 -1.51973982E+01  7.59869910E+00  7.59869910E+00 -1.51973982E+01
  7.59869910E+00  7.59869910E+00 -1.51973982E+01  7.59869910E+00  7.59869910E+00
 -1.51973982E+01  7.59869910E+00  7.59869910E+00 -1.51973982E+01  7.59869910E+00
  7.59869910E+00 -1.51973982E+01  7.59869910E+00  7.59869910E+00 -1.51973982E+01
  7.59869910E+00  7.59869910E+00 -1.51973982E+01  7.59869910E+00  7.59869910E+00
 -1.51973982E+01  7.59869910E+00  7.59869910E+00 -1.51973982E+01  7.59869910E+00
  7.59869910E+00 -1.51973982E+01  7.59869910E+00  7.59869910E+00 -1.51973982E+01
  7.59869910E+00  7.59869910E+00 -1.51973982E+01  7.59869910E+00  7.59869910E+00
 -1.51973982E+01  7.59869910E+00  7.59869910E+00 -1.51973982E+01  7.59869910E+00
  7.59869910E+00 -1.51973982E+01  7.59869910E+00  7.59869910E+00 -1.51973982E+01
  7.59869910E+00  7.59869910E+00 -1.51973982E+01  7.59869910E+00  7.59869910E+00
 -1.51973982E+01  7.59869910E+00  7.59869910E+00 -1.51973982E+01  7.59869910E+00
  7.59869910E+00 -1.51973982E+01  7.59869910E+00  7.59869910E+00 -1.51973982E+01
  7.59869910E+00  7.59869910E+00 -1.51973982E+01  7.59869910E+00  7.59869910E+00
 -1.51973982E+01  7.59869910E+00  7.59869910E+00 -1.51973982E+01  7.59869910E+00
  7.59869910E+00 -1.51973982E+01  7.59869910E+00  7.59869910E+00 -1.51973982E+01
  7.59869910E+00  7.59869910E+00 -1.51973982E+01  7.59869910E+00  7.59869910E+00
 -1.51973982E+01  7.59869910E+00  7.59869910E+00 -1.51973982E+01  7.59869910E+00
  7.59869910E+00 -1.51973982E+01  7.59869910E+00  7.59869910E+00 -1.51973982E+01
  7.59869910E+00  7.59869910E+00 -1.51973982E+01  7.59869910E+00  7.59869910E+00
 -1.51973982E+01  7.59869910E+00  7.59869910E+00 -1.51973982E+01  7.59869910E+00
  7.59869910E+00 -1.51973982E+01  7.59869910E+00  7.59869910E+00 -1.51973982E+01
  7.59869910E+00  7.59869910E+00 -1.51973982E+01  7.59869910E+00  7.59869910E+00
 -1.51973982E+01  7.59869910E+00  7.59869910E+00 -1.51973982E+01  7.59869910E+00
  7.59869910E+00 -1.51973982E+01  7.59869910E+00  7.59869910E+00 -1.51973982E+01
  7.59869910E+00  7.59869910E+00 -1.51973982E+01  7.59869910E+00  7.59869910E+00
 -1.51973982E+01  7.59869910E+00  7.59869910E+00 -1.51973982E+01  7.59869910E+00
  7.59869910E+00 -1.51973982E+01  7.59869910E+00  7.59869910E+00 -1.51973982E+01
  7.59869910E+00  7.59869910E+00 -1.51973982E+01  7.59869910E+00  7.59869910E+00
 -1.51973982E+01  7.59869910E+00  7.59869910E+00 -1.51973982E+01  7.59869910E+00
  7.59869910E+00 -1.51973982E+01  7.59869910E+00  7.59869910E+00 -1.51973982E+01
  7.59869910E+00  7.59869910E+00 -1.51973982E+01  7.59869910E+00  7.59869910E+00
 -1.51973982E+01  7.59869910E+00  7.59869910E+00 -1.51973982E+01  7.59869910E+00
  7.59869910E+00 -1.51973982E+01  7.59869910E+00  7.59869910E+00 -1.51973982E+01
  7.59869910E+00  7.59869910E+00 -1.51973982E+01  7.59869910E+00  7.59869910E+00
 -1.51973982E+01  7.59869910E+00  7.59869910E+00 -1.51973982E+01  7.59869910E+00
  7.59869910E+00 -1.51973982E+01  7.59869910E+00  7.59869910E+00 -1.51973982E+01
  7.59869910E+00  7.59869910E+00 -1.51973982E+01  7.59869910E+00  7.59869910E+00
 -1.51973982E+01  7.59869910E+00  7.59869910E+00 -1.51973982E+01  7.59869910E+00
  7.59869910E+00 -1.51973982E+01  7.59869910E+00  7.59869910E+00 -1.51973982E+01
  7.59869910E+00  7.59869910E+00 -1.51973982E+01  7.59869910E+00  7.59869910E+00
 -1.51973982E+01  7.59869910E+00  7.59869910E+00 -1.51973982E+01  7.59869910E+00
  7.59869910E+00 -1.51973982E+01  7.59869910E+00  7.59869910E+00 -1.51973982E+01
  7.59869910E+00  7.59869910E+00 -1.51973982E+01  7.59869910E+00  7.59869910E+00
 -1.51973982E+01  7.59869910E+00  7.59869910E+00 -1.51973982E+01  7.59869910E+00
  7.59869910E+00 -1.51973982E+01  7.59869910E+00  7.59869910E+00 -1.51973982E+01
  7.59869910E+00  7.59869910E+00 -1.51973982E+01  7.59869910E+00  7.59869910E+00
 -1.51973982E+01  7.59869910E+00  7.59869910E+00 -1.51973982E+01  7.59869910E+00
  7.59869910E+00 -1.51973982E+01  7.59869910E+00  7.59869910E+00 -1.51973982E+01
  7.59869910E+00  7.59869910E+00 -1.51973982E+01  7.59869910E+00  7.59869910E+00
 -1.51973982E+01  7.59869910E+00  7.59869910E+00 -1.51973982E+01  7.59869910E+00
  7.59869910E+00 -1.51973982E+01  7.59869910E+00  7.59869910E+00 -1.51973982E+01
  7.59869910E+00  7.59869910E+00 -1.51973982E+01  7.59869910E+00  7.59869910E+00
 -1.51973982E+01  7.59869910E+00  7.59869910E+00 -1.51973982E+01  7.59869910E+00
  7.59869910E+00 -1.51973982E+01  7.59869910E+00  7.59869910E+00 -1.51973982E+01
  7.59869910E+00  7.59869910E+00 -1.51973982E+01  7.59869910E+00  7.59869910E+00
 -1.51973982E+01  7.59869910E+00  7.59869910E+00 -1.51973982E+01  7.59869910E+00
  7.59869910E+00 -1.51973982E+01  7.59869910E+00  7.59869910E+00 -1.51973982E+01
  7.59869910E+00  7.59869910E+00 -1.51973982E+01  7.59869910E+00  7.59869910E+00
 -1.51973982E+01  7.59869910E+00  7.59869910E+00 -1.51973982E+01  7.59869910E+00
  7.59869910E+00 -1.51973982E+01  7.59869910E+00  7.59869910E+00 -1.51973982E+01
  7.59869910E+00  7.59869910E+00 -1.51973982E+01  7.59869910E+00  7.59869910E+00
 -1.51973982E+01  7.59869910E+00  7.59869910E+00 -1.51973982E+01  7.59869910E+00
  7.59869910E+00 -1.51973982E+01  7.59869910E+00  7.59869910E+00 -1.51973982E+01
  7.59869910E+00  7.59869910E+00 -1.51973982E+01  7.59869910E+00  7.59869910E+00
 -1.51973982E+01  7.59869910E+00  7.59869910E+00 -1.51973982E+01  7.59869910E+00
  7.59869910E+00 -1.51973982E+01  7.59869910E+00  7.59869910E+00 -1.51973982E+01
  7.59869910E+00  7.59869910E+00 -1.51973982E+01  7.59869910E+00  7.59869910E+00
 -1.51973982E+01  7.59869910E+00  7.59869910E+00 -1.51973982E+01  7.59869910E+00
  7.59869910E+00 -1.51973982E+01  7.59869910E+00  7.59869910E+00 -1.51973982E+01
  7.59869910E+00  7.59869910E+00 -1.51973982E+01  7.59869910E+00  7.59869910E+00
 -1.51973982E+01  7.59869910E+00  7.59869910E+00 -1.51973982E+01  7.59869910E+00
  7.59869910E+00 -1.51973982E+01  7.59869910E+00  7.59869910E+00 -1.51973982E+01
  7.59869910E+00  7.59869910E+00 -1.51973982E+01  7.59869910E+00  7.59869910E+00
 -1.51973982E+01  7.59869910E+00  7.59869910E+00 -1.51973982E+01  7.59869910E+00
  7.59869910E+00 -1.51973982E+01  7.59869910E+00  7.59869910E+00 -1.51973982E+01
  7.59869910E+00  7.59869910E+00 -1.51973982E+01  7.59869910E+00  7.59869910E+00
 -1.51973982E+01  7.59869910E+00  7.59869910E+00 -1.51973982E+01  7.59869910E+00
  7.59869910E+00 -1.51973982E+01  7.59869910E+00  7.59869910E+00 -1.51973982E+01
  7.59869910E+00  7.59869910E+00 -1.51973982E+01  7.59869910E+00  7.59869910E+00
 -1.51973982E+01  7.59869910E+00  7.59869910E+00 -1.51973982E+01  7.59869910E+00
  7.59869910E+00 -1.51973982E+01  7.59869910E+00  7.59869910E+00 -1.51973982E+01
  7.59869910E+00  7.59869910E+00 -1.51973982E+01  7.59869910E+00  7.59869910E+00
 -1.51973982E+01  7.59869910E+00  7.59869910E+00 -1.51973982E+01  7.59869910E+00
  7.59869910E+00 -1.51973982E+01  7.59869910E+00  7.59869910E+00 -1.51973982E+01
  7.59869910E+00  7.59869910E+00 -1.51973982E+01  7.59869910E+00  7.59869910E+00
 -1.51973982E+01  7.59869910E+00  7.59869910E+00 -1.51973982E+01  7.59869910E+00
  7.59869910E+00 -1.51973982E+01  7.59869910E+00  7.59869910E+00 -1.51973982E+01
  7.59869910E+00  7.59869910E+00 -1.51973982E+01  7.59869910E+00  7.59869910E+00
 -1.51973982E+01  7.59869910E+00  7.59869910E+00 -1.51973982E+01  7.59869910E+00
  7.59869910E+00 -1.51973982E+01  7.59869910E+00  7.59869910E+00 -1.51973982E+01
  7.59869910E+00  7.59869910E+00 -1.51973982E+01  7.59869910E+00  7.59869910E+00
 -1.51973982E+01  7.59869910E+00  7.59869910E+00 -1.51973982E+01  7.59869910E+00
  7.59869910E+00 -1.51973982E+01  7.59869910E+00  7.59869910E+00 -1.51973982E+01
  7.59869910E+00  7.59869910E+00 -1.51973982E+01  7.59869910E+00  7.59869910E+00
 -1.51973982E+01  7.59869910E+00  7.59869910E+00 -1.51973982E+01  7.59869910E+00
  7.59869910E+00 -1.51973982E+01  7.59869910E+00  7.59869910E+00 -1.51973982E+01
  7.59869910E+00  7.59869910E+00 -1.51973982E+01  7.59869910E+00  7.59869910E+00
 -1.51973982E+01  7.59869910E+00  7.59869910E+00 -1.51973982E+01  7.59869910E+00
  7.59869910E+00 -1.51973982E+01  7.59869910E+00  7.59869910E+00 -1.51973982E+01
  7.59869910E+00  7.59869910E+00 -1.51973982E+01  7.59869910E+00  7.59869910E+00
 -1.51973982E+01  7.59869910E+00  7.59869910E+00 -1.51973982E+01  7.59869910E+00
  7.59869910E+00 -1.51973982E+01  7.59869910E+00  7.59869910E+00 -1.51973982E+01
  7.59869910E+00  7.59869910E+00 -1.51973982E+01  7.59869910E+00  7.59869910E+00
 -1.51973982E+01  7.59869910E+00  7.59869910E+00 -1.51973982E+01  7.59869910E+00
  7.59869910E+00 -1.51973982E+01  7.59869910E+00  7.59869910E+00 -1.51973982E+01
  7.59869910E+00  7.59869910E+00 -1.51973982E+01  7.59869910E+00  7.59869910E+00
 -1.51973982E+01  7.59869910E+00  7.59869910E+00 -1.51973982E+01  7.59869910E+00
  7.59869910E+00 -1.51973982E+01  7.59869910E+00  7.59869910E+00 -1.51973982E+01
  7.59869910E+00  7.59869910E+00 -1.51973982E+01  7.59869910E+00  7.59869910E+00
 -1.51973982E+01  7.59869910E+00  7.59869910E+00 -1.51973982E+01  7.59869910E+00
  7.59869910E+00 -1.51973982E+01  7.59869910E+00  7.59869910E+00 -1.51973982E+01
  7.59869910E+00  7.59869910E+00 -1.51973982E+01  7.59869910E+00  7.59869910E+00
 -1.51973982E+01  7.59869910E+00  7.59869910E+00 -1.51973982E+01  7.59869910E+00
  7.59869910E+00 -1.51973982E+01  7.59869910E+00  7.59869910E+00 -1.51973982E+01
  7.59869910E+00  7.59869910E+00 -1.51973982E+01  7.59869910E+00  7.59869910E+00
 -1.51973982E+01  7.59869910E+00  7.59869910E+00 -1.51973982E+01  7.59869910E+00
  7.59869910E+00 -1.51973982E+01  7.59869910E+00  7.59869910E+00 -1.51973982E+01
  7.59869910E+00  7.59869910E+00 -1.51973982E+01  7.59869910E+00  7.59869910E+00
 -1.51973982E+01  7.59869910E+00  7.59869910E+00 -1.51973982E+01  7.59869910E+00
  7.59869910E+00 -1.51973982E+01  7.59869910E+00  7.59869910E+00 -1.51973982E+01
  7.59869910E+00  7.59869910E+00 -1.51973982E+01  7.59869910E+00  7.59869910E+00
 -1.51973982E+01  7.59869910E+00  7.59869910E+00 -1.51973982E+01  7.59869910E+00
  7.59869910E+00 -1.51973982E+01  7.59869910E+00  7.59869910E+00 -1.51973982E+01
  7.59869910E+00  7.59869910E+00 -1.51973982E+01  7.59869910E+00  7.59869910E+00
 -1.51973982E+01  7.59869910E+00  7.59869910E+00 -1.51973982E+01  7.59869910E+00
  7.59869910E+00 -1.51973982E+01  7.59869910E+00  7.59869910E+00 -1.51973982E+01
  7.59869910E+00  7.59869910E+00 -1.51973982E+01  7.59869910E+00  7.59869910E+00
 -1.51973982E+01  7.59869910E+00  7.59869910E+00 -1.51973982E+01  7.59869910E+00
  7.59869910E+00 -1.51973982E+01  7.59869910E+00  7.59869910E+00 -1.51973982E+01
  7.59869910E+00  7.59869910E+00 -1.51973982E+01  7.59869910E+00  7.59869910E+00
 -1.51973982E+01  7.59869910E+00  7.59869910E+00 -1.51973982E+01  7.59869910E+00
  7.59869910E+00 -1.51973982E+01  7.59869910E+00  7.59869910E+00 -1.51973982E+01
  7.59869910E+00  7.59869910E+00 -1.51973982E+01  7.59869910E+00  7.59869910E+00
 -1.51973982E+01  7.59869910E+00  7.59869910E+00 -1.51973982E+01  7.59869910E+00
  7.59869910E+00 -1.51973982E+01  7.59869910E+00  7.59869910E+00 -1.51973982E+01
  7.59869910E+00  7.59869910E+00 -1.51973982E+01  7.59869910E+00  7.59869910E+00
 -1.51973982E+01  7.59869910E+00  7.59869910E+00 -1.51973982E+01  7.59869910E+00
  7.59869910E+00 -1.51973982E+01  7.59869910E+00  7.59869910E+00 -1.51973982E+01
  7.59869910E+00  7.59869910E+00 -1.51973982E+01  7.59869910E+00  7.59869910E+00
 -1.51973982E+01  7.59869910E+00  7.59869910E+00 -1.51973982E+01  7.59869910E+00
  7.59869910E+00 -1.51973982E+01  7.59869910E+00  7.59869910E+00 -1.51973982E+01
  7.59869910E+00  7.59869910E+00 -1.51973982E+01  7.59869910E+00  7.59869910E+00
 -1.51973982E+01  7.59869910E+00  7.59869910E+00 -1.51973982E+01  7.59869910E+00
  7.59869910E+00 -1.51973982E+01  7.59869910E+00  7.59869910E+00 -1.51973982E+01
  7.59869910E+00  7.59869910E+00 -1.51973982E+01  7.59869910E+00  7.59869910E+00
 -1.51973982E+01  7.59869910E+00  7.59869910E+00 -1.51973982E+01  7.59869910E+00
  7.59869910E+00 -1.51973982E+01  7.59869910E+00  7.59869910E+00 -1.51973982E+01
  7.59869910E+00  7.59869910E+00 -1.51973982E+01  7.59869910E+00  7.59869910E+00
 -1.51973982E+01  7.59869910E+00  7.59869910E+00 -1.51973982E+01  7.59869910E+00
  7.59869910E+00 -1.51973982E+01  7.59869910E+00  7.59869910E+00 -1.51973982E+01
  7.59869910E+00  7.59869910E+00 -1.51973982E+01  7.59869910E+00  7.59869910E+00
 -1.51973982E+01  7.59869910E+00  7.59869910E+00 -1.51973982E+01  7.59869910E+00
  7.59869910E+00 -1.51973982E+01  7.59869910E+00  7.59869910E+00 -1.51973982E+01
  7.59869910E+00  7.59869910E+00 -1.51973982E+01  7.59869910E+00  7.59869910E+00
 -1.51973982E+01  7.59869910E+00  7.59869910E+00 -1.51973982E+01  7.59869910E+00
  7.59869910E+00 -1.51973982E+01  7.59869910E+00  7.59869910E+00 -1.51973982E+01
  7.59869910E+00  7.59869910E+00 -1.51973982E+01  7.59869910E+00  7.59869910E+00
 -1.51973982E+01  7.59869910E+00  7.59869910E+00 -1.51973982E+01  7.59869910E+00
  7.59869910E+00 -1.51973982E+01  7.59869910E+00  7.59869910E+00 -1.51973982E+01
  7.59869910E+00  7.59869910E+00 -1.51973982E+01  7.59869910E+00  7.59869910E+00
 -1.51973982E+01  7.59869910E+00  7.59869910E+00 -1.51973982E+01  7.59869910E+00
  7.59869910E+00 -1.51973982E+01  7.59869910E+00  7.59869910E+00 -1.51973982E+01
  7.59869910E+00  7.59869910E+00 -1.51973982E+01  7.59869910E+00  7.59869910E+00
 -1.51973982E+01  7.59869910E+00  7.59869910E+00 -1.51973982E+01  7.59869910E+00
  7.59869910E+00 -1.51973982E+01  7.59869910E+00  7.59869910E+00 -1.51973982E+01
  7.59869910E+00  7.59869910E+00 -1.51973982E+01  7.59869910E+00  7.59869910E+00
 -1.51973982E+01  7.59869910E+00  7.59869910E+00 -1.51973982E+01  7.59869910E+00
  7.59869910E+00 -1.51973982E+01  7.59869910E+00  7.59869910E+00 -1.51973982E+01
  7.59869910E+00  7.59869910E+00 -1.51973982E+01  7.59869910E+00  7.59869910E+00
 -1.51973982E+01  7.59869910E+00  7.59869910E+00 -1.51973982E+01  7.59869910E+00
  7.59869910E+00 -1.51973982E+01  7.59869910E+00  7.59869910E+00 -1.51973982E+01
  7.59869910E+00  7.59869910E+00 -1.51973982E+01  7.59869910E+00  7.59869910E+00
 -1.51973982E+01  7.59869910E+00  7.59869910E+00 -1.51973982E+01  7.59869910E+00
  7.59869910E+00 -1.51973982E+01  7.59869910E+00  7.59869910E+00 -1.51973982E+01
  7.59869910E+00  7.59869910E+00 -1.51973982E+01  7.59869910E+00  7.59869910E+00
 -1.51973982E+01  7.59869910E+00  7.59869910E+00 -1.51973982E+01  7.59869910E+00
  7.59869910E+00 -1.51973982E+01  7.59869910E+00  7.59869910E+00 -1.51973982E+01
  7.59869910E+00  7.59869910E+00 -1.51973982E+01  7.59869910E+00  7.59869910E+00
 -1.51973982E+01  7.59869910E+00  7.59869910E+00 -1.51973982E+01  7.59869910E+00
  7.59869910E+00 -1.51973982E+01  7.59869910E+00  7.59869910E+00 -1.51973982E+01
  7.59869910E+00  7.59869910E+00 -1.51973982E+01  7.59869910E+00  7.59869910E+00
 -1.51973982E+01  7.59869910E+00  7.59869910E+00 -1.51973982E+01  7.59869910E+00
  7.59869910E+00 -1.51973982E+01  7.59869910E+00  7.59869910E+00 -1.51973982E+01
  7.59869910E+00  7.59869910E+00 -1.51973982E+01  7.59869910E+00  7.59869910E+00
 -1.51973982E+01  7.59869910E+00  7.59869910E+00 -1.51973982E+01  7.59869910E+00
  7.59869910E+00 -1.51973982E+01  7.59869910E+00  7.59869910E+00 -1.51973982E+01
  7.59869910E+00  7.59869910E+00 -1.51973982E+01  7.59869910E+00  7.59869910E+00
 -1.51973982E+01  7.59869910E+00  7.59869910E+00 -1.51973982E+01  7.59869910E+00
  7.59869910E+00 -1.51973982E+01  7.59869910E+00  7.59869910E+00 -1.51973982E+01
  7.59869910E+00  7.59869910E+00 -1.51973982E+01  7.59869910E+00  7.59869910E+00
 -1.51973982E+01  7.59869910E+00  7.59869910E+00 -1.51973982E+01  7.59869910E+00
  7.59869910E+00 -1.51973982E+01  7.59869910E+00  7.59869910E+00 -1.51973982E+01
  7.59869910E+00  7.59869910E+00 -1.51973982E+01  7.59869910E+00  7.59869910E+00
 -1.51973982E+01  7.59869910E+00  7.59869910E+00 -1.51973982E+01  7.59869910E+00
  7.59869910E+00 -1.51973982E+01  7.59869910E+00  7.59869910E+00 -1.51973982E+01
  7.59869910E+00  7.59869910E+00 -1.51973982E+01  7.59869910E+00  7.59869910E+00
 -1.51973982E+01  7.59869910E+00  7.59869910E+00 -1.51973982E+01  7.59869910E+00
  7.59869910E+00 -1.51973982E+01  7.59869910E+00  7.59869910E+00 -1.51973982E+01
  7.59869910E+00  7.59869910E+00 -1.51973982E+01  7.59869910E+00  7.59869910E+00
 -1.51973982E+01  7.59869910E+00  7.59869910E+00 -1.51973982E+01  7.59869910E+00
  7.59869910E+00 -1.51973982E+01  7.59869910E+00  7.59869910E+00 -1.51973982E+01
  7.59869910E+00  7.59869910E+00 -1.51973982E+01  7.59869910E+00  7.59869910E+00
 -1.51973982E+01  7.59869910E+00  7.59869910E+00 -1.51973982E+01  7.59869910E+00
  7.59869910E+00 -1.51973982E+01  7.59869910E+00  7.59869910E+00 -1.51973982E+01
  7.59869910E+00  7.59869910E+00 -1.51973982E+01  7.59869910E+00  7.59869910E+00
 -1.51973982E+01  7.59869910E+00  7.59869910E+00 -1.51973982E+01  7.59869910E+00
  7.59869910E+00 -1.51973982E+01  7.59869910E+00  7.59869910E+00 -1.51973982E+01
  7.59869910E+00  7.59869910E+00 -1.51973982E+01  7.59869910E+00  7.59869910E+00
 -1.51973982E+01  7.59869910E+00  7.59869910E+00 -1.51973982E+01  7.59869910E+00
  7.59869910E+00 -1.51973982E+01  7.59869910E+00  7.59869910E+00 -1.51973982E+01
  7.59869910E+00  7.59869910E+00 -1.51973982E+01  7.59869910E+00  7.59869910E+00
 -1.51973982E+01  7.59869910E+00  7.59869910E+00 -1.51973982E+01  7.59869910E+00
  7.59869910E+00 -1.51973982E+01  7.59869910E+00  7.59869910E+00 -1.51973982E+01
  7.59869910E+00  7.59869910E+00 -1.51973982E+01  7.59869910E+00  7.59869910E+00
 -1.51973982E+01  7.59869910E+00  7.59869910E+00 -1.51973982E+01  7.59869910E+00
  7.59869910E+00 -1.51973982E+01  7.59869910E+00  7.59869910E+00 -1.51973982E+01
  7.59869910E+00  7.59869910E+00 -1.51973982E+01  7.59869910E+00  7.59869910E+00
 -1.51973982E+01  7.59869910E+00  7.59869910E+00 -1.51973982E+01  7.59869910E+00
  7.59869910E+00 -1.51973982E+01  7.59869910E+00  7.59869910E+00 -1.51973982E+01
  7.59869910E+00  7.59869910E+00 -1.51973982E+01  7.59869910E+00  7.59869910E+00
 -1.51973982E+01  7.59869910E+00  7.59869910E+00 -1.51973982E+01  7.59869910E+00
  7.59869910E+00 -1.51973982E+01  7.59869910E+00  7.59869910E+00 -1.51973982E+01
  7.59869910E+00  7.59869910E+00 -1.51973982E+01  7.59869910E+00  7.59869910E+00
 -1.51973982E+01  7.59869910E+00  7.59869910E+00 -1.51973982E+01  7.59869910E+00
  7.59869910E+00 -1.51973982E+01  7.59869910E+00  7.59869910E+00 -1.51973982E+01
  7.59869910E+00  7.59869910E+00 -1.51973982E+01  7.59869910E+00  7.59869910E+00
 -1.51973982E+01  7.59869910E+00  7.59869910E+00 -1.51973982E+01  7.59869910E+00
  7.59869910E+00 -1.51973982E+01  7.59869910E+00  7.59869910E+00 -1.51973982E+01
  7.59869910E+00  7.59869910E+00 -1.51973982E+01  7.59869910E+00  7.59869910E+00
 -1.51973982E+01  7.59869910E+00  7.59869910E+00 -1.51973982E+01  7.59869910E+00
  7.59869910E+00 -1.51973982E+01  7.59869910E+00  7.59869910E+00 -1.51973982E+01
  7.59869910E+00  7.59869910E+00 -1.51973982E+01  7.59869910E+00  7.59869910E+00
 -1.51973982E+01  7.59869910E+00  7.59869910E+00 -1.51973982E+01  7.59869910E+00
  7.59869910E+00 -1.51973982E+01  7.59869910E+00  7.59869910E+00 -1.51973982E+01
  7.59869910E+00  7.59869910E+00 -1.51973982E+01  7.59869910E+00  7.59869910E+00
 -1.51973982E+01  7.59869910E+00  7.59869910E+00 -1.51973982E+01  7.59869910E+00
  7.59869910E+00 -1.51973982E+01  7.59869910E+00  7.59869910E+00 -1.51973982E+01
  7.59869910E+00  7.59869910E+00 -1.51973982E+01  7.59869910E+00  7.59869910E+00
 -1.51973982E+01  7.59869910E+00  7.59869910E+00 -1.51973982E+01  7.59869910E+00
  7.59869910E+00 -1.51973982E+01  7.59869910E+00  7.59869910E+00 -1.51973982E+01
  7.59869910E+00  7.59869910E+00 -1.51973982E+01  7.59869910E+00  7.59869910E+00
 -1.51973982E+01  7.59869910E+00  7.59869910E+00 -1.51973982E+01  7.59869910E+00
  7.59869910E+00 -1.51973982E+01  7.59869910E+00  7.59869910E+00 -1.51973982E+01
  7.59869910E+00  7.59869910E+00 -1.51973982E+01  7.59869910E+00  7.59869910E+00
 -1.51973982E+01  7.59869910E+00  7.59869910E+00 -1.51973982E+01  7.59869910E+00
  7.59869910E+00 -1.51973982E+01  7.59869910E+00  7.59869910E+00 -1.51973982E+01
  7.59869910E+00  7.59869910E+00 -1.51973982E+01  7.59869910E+00  7.59869910E+00
 -1.51973982E+01  7.59869910E+00  7.59869910E+00 -1.51973982E+01  7.59869910E+00
  7.59869910E+00 -1.51973982E+01  7.59869910E+00  7.59869910E+00 -1.51973982E+01
  7.59869910E+00  7.59869910E+00 -1.51973982E+01  7.59869910E+00  7.59869910E+00
 -1.51973982E+01  7.59869910E+00  7.59869910E+00 -1.51973982E+01  7.59869910E+00
  7.59869910E+00 -1.51973982E+01  7.59869910E+00  7.59869910E+00 -1.51973982E+01
  7.59869910E+00  7.59869910E+00 -1.51973982E+01  7.59869910E+00  7.59869910E+00
 -1.51973982E+01  7.59869910E+00  7.59869910E+00 -1.51973982E+01  7.59869910E+00
  7.59869910E+00 -1.51973982E+01  7.59869910E+00  7.59869910E+00 -1.51973982E+01
  7.59869910E+00  7.59869910E+00 -1.51973982E+01  7.59869910E+00  7.59869910E+00
 -1.51973982E+01  7.59869910E+00  7.59869910E+00 -1.51973982E+01  7.59869910E+00
  7.59869910E+00 -1.51973982E+01  7.59869910E+00  7.59869910E+00 -1.51973982E+01
  7.59869910E+00  7.59869910E+00 -1.51973982E+01  7.59869910E+00  7.59869910E+00
 -1.51973982E+01  7.59869910E+00  7.59869910E+00 -1.51973982E+01  7.59869910E+00
  7.59869910E+00 -1.51973982E+01  7.59869910E+00  7.59869910E+00 -1.51973982E+01
  7.59869910E+00  7.59869910E+00 -1.51973982E+01  7.59869910E+00  7.59869910E+00
 -1.51973982E+01  7.59869910E+00  7.59869910E+00 -1.51973982E+01  7.59869910E+00
  7.59869910E+00 -1.51973982E+01  7.59869910E+00  7.59869910E+00 -1.51973982E+01
  7.59869910E+00  7.59869910E+00 -1.51973982E+01  7.59869910E+00  7.59869910E+00
 -1.51973982E+01  7.59869910E+00  7.59869910E+00 -1.51973982E+01  7.59869910E+00
  7.59869910E+00 -1.51973982E+01  7.59869910E+00  7.59869910E+00 -1.51973982E+01
  7.59869910E+00  7.59869910E+00 -1.51973982E+01  7.59869910E+00  7.59869910E+00
 -1.51973982E+01  7.59869910E+00  7.59869910E+00 -1.51973982E+01  7.59869910E+00
  7.59869910E+00 -1.51973982E+01  7.59869910E+00  7.59869910E+00 -1.51973982E+01
  7.59869910E+00  7.59869910E+00 -1.51973982E+01  7.59869910E+00  7.59869910E+00
 -1.51973982E+01  7.59869910E+00  7.59869910E+00 -1.51973982E+01  7.59869910E+00
  7.59869910E+00 -1.51973982E+01  7.59869910E+00  7.59869910E+00 -1.51973982E+01
  7.59869910E+00  7.59869910E+00 -1.51973982E+01  7.59869910E+00  7.59869910E+00
 -1.51973982E+01  7.59869910E+00  7.59869910E+00 -1.51973982E+01  7.59869910E+00
  7.59869910E+00 -1.51973982E+01  7.59869910E+00  7.59869910E+00 -1.51973982E+01
  7.59869910E+00  7.59869910E+00 -1.51973982E+01  7.59869910E+00  7.59869910E+00
 -1.51973982E+01  7.59869910E+00  7.59869910E+00 -1.51973982E+01  7.59869910E+00
  7.59869910E+00 -1.51973982E+01  7.59869910E+00  7.59869910E+00 -1.51973982E+01
  7.59869910E+00  7.59869910E+00 -1.51973982E+01  7.59869910E+00  7.59869910E+00
 -1.51973982E+01  7.59869910E+00  7.59869910E+00 -1.51973982E+01  7.59869910E+00
  7.59869910E+00 -1.51973982E+01  7.59869910E+00  7.59869910E+00 -1.51973982E+01
  7.59869910E+00  7.59869910E+00 -1.51973982E+01  7.59869910E+00  7.59869910E+00
 -1.51973982E+01  7.59869910E+00  7.59869910E+00 -1.51973982E+01  7.59869910E+00
  7.59869910E+00 -1.51973982E+01  7.59869910E+00  7.59869910E+00 -1.51973982E+01
  7.59869910E+00  7.59869910E+00 -1.51973982E+01  7.59869910E+00  7.59869910E+00
 -1.51973982E+01  7.59869910E+00  7.59869910E+00 -1.51973982E+01  7.59869910E+00
  7.59869910E+00 -1.51973982E+01  7.59869910E+00  7.59869910E+00 -1.51973982E+01
  7.59869910E+00  7.59869910E+00 -1.51973982E+01  7.59869910E+00  7.59869910E+00
 -1.51973982E+01  7.59869910E+00  7.59869910E+00 -1.51973982E+01  7.59869910E+00
  7.59869910E+00 -1.51973982E+01  7.59869910E+00  7.59869910E+00 -1.51973982E+01
  7.59869910E+00  7.59869910E+00 -1.51973982E+01  7.59869910E+00  7.59869910E+00
 -1.51973982E+01  7.59869910E+00  7.59869910E+00 -1.51973982E+01  7.59869910E+00
  7.59869910E+00 -1.51973982E+01  7.59869910E+00  7.59869910E+00 -1.51973982E+01
  7.59869910E+00  7.59869910E+00 -1.51973982E+01  7.59869910E+00  7.59869910E+00
 -1.51973982E+01  7.59869910E+00  7.59869910E+00 -1.51973982E+01  7.59869910E+00
  7.59869910E+00 -1.51973982E+01  7.59869910E+00  7.59869910E+00 -1.51973982E+01
  7.59869910E+00  7.59869910E+00 -1.51973982E+01  7.59869910E+00  7.59869910E+00
 -1.51973982E+01  7.59869910E+00  7.59869910E+00 -1.51973982E+01  7.59869910E+00
  7.59869910E+00 -1.51973982E+01  7.59869910E+00  7.59869910E+00 -1.51973982E+01
  7.59869910E+00  7.59869910E+00 -1.51973982E+01  7.59869910E+00  7.59869910E+00
 -1.51973982E+01  7.59869910E+00  7.59869910E+00 -1.51973982E+01  7.59869910E+00
  7.59869910E+00 -1.51973982E+01  7.59869910E+00  7.59869910E+00 -1.51973982E+01
  7.59869910E+00  7.59869910E+00 -1.51973982E+01  7.59869910E+00  7.59869910E+00
 -1.51973982E+01  7.59869910E+00  7.59869910E+00 -1.51973982E+01  7.59869910E+00
  7.59869910E+00 -1.51973982E+01  7.59869910E+00  7.59869910E+00 -1.51973982E+01
  7.59869910E+00  7.59869910E+00 -1.51973982E+01  7.59869910E+00  7.59869910E+00
 -1.51973982E+01  7.59869910E+00  7.59869910E+00 -1.51973982E+01  7.59869910E+00
  7.59869910E+00 -1.51973982E+01  7.59869910E+00  7.59869910E+00 -1.51973982E+01
  7.59869910E+00  7.59869910E+00 -1.51973982E+01  7.59869910E+00  7.59869910E+00
 -1.51973982E+01  7.59869910E+00  7.59869910E+00 -1.51973982E+01  7.59869910E+00
  7.59869910E+00 -1.51973982E+01  7.59869910E+00  7.59869910E+00 -1.51973982E+01
  7.59869910E+00  7.59869910E+00 -1.51973982E+01  7.59869910E+00  7.59869910E+00
 -1.51973982E+01  7.59869910E+00  7.59869910E+00 -1.51973982E+01  7.59869910E+00
  7.59869910E+00 -1.51973982E+01  7.59869910E+00  7.59869910E+00 -1.51973982E+01
  7.59869910E+00  7.59869910E+00 -1.51973982E+01  7.59869910E+00  7.59869910E+00
 -1.51973982E+01  7.59869910E+00  7.59869910E+00 -1.51973982E+01  7.59869910E+00
  7.59869910E+00 -1.51973982E+01  7.59869910E+00  7.59869910E+00 -1.51973982E+01
  7.59869910E+00  7.59869910E+00 -1.51973982E+01  7.59869910E+00  7.59869910E+00
 -1.51973982E+01  7.59869910E+00  7.59869910E+00 -1.51973982E+01  7.59869910E+00
  7.59869910E+00 -1.51973982E+01  7.59869910E+00  7.59869910E+00 -1.51973982E+01
  7.59869910E+00  7.59869910E+00 -1.51973982E+01  7.59869910E+00  7.59869910E+00
 -1.51973982E+01  7.59869910E+00  7.59869910E+00 -1.51973982E+01  7.59869910E+00
  7.59869910E+00 -1.51973982E+01  7.59869910E+00  7.59869910E+00 -1.51973982E+01
  7.59869910E+00  7.59869910E+00 -1.51973982E+01  7.59869910E+00  7.59869910E+00
 -1.51973982E+01  7.59869910E+00  7.59869910E+00 -1.51973982E+01  7.59869910E+00
  7.59869910E+00 -1.51973982E+01  7.59869910E+00  7.59869910E+00 -1.51973982E+01
  7.59869910E+00  7.59869910E+00 -1.51973982E+01  7.59869910E+00  7.59869910E+00
 -1.51973982E+01  7.59869910E+00  7.59869910E+00 -1.51973982E+01  7.59869910E+00
  7.59869910E+00 -1.51973982E+01  7.59869910E+00  7.59869910E+00 -1.51973982E+01
  7.59869910E+00  7.59869910E+00 -1.51973982E+01  7.59869910E+00  7.59869910E+00
 -1.51973982E+01  7.59869910E+00  7.59869910E+00 -1.51973982E+01  7.59869910E+00
  7.59869910E+00 -1.51973982E+01  7.59869910E+00  7.59869910E+00 -1.51973982E+01
  7.59869910E+00  7.59869910E+00 -1.51973982E+01  7.59869910E+00  7.59869910E+00
 -1.51973982E+01  7.59869910E+00  7.59869910E+00 -1.51973982E+01  7.59869910E+00
  7.59869910E+00 -1.51973982E+01  7.59869910E+00  7.59869910E+00 -1.51973982E+01
  7.59869910E+00  7.59869910E+00 -1.51973982E+01  7.59869910E+00  7.59869910E+00
 -1.51973982E+01  7.59869910E+00  7.59869910E+00 -1.51973982E+01  7.59869910E+00
  7.59869910E+00 -1.51973982E+01  7.59869910E+00  7.59869910E+00 -1.51973982E+01
  7.59869910E+00  7.59869910E+00 -1.51973982E+01  7.59869910E+00  7.59869910E+00
 -1.51973982E+01  7.59869910E+00  7.59869910E+00 -1.51973982E+01  7.59869910E+00
  7.59869910E+00 -1.51973982E+01  7.59869910E+00  7.59869910E+00 -1.51973982E+01
  7.59869910E+00  7.59869910E+00 -1.51973982E+01  7.59869910E+00  7.59869910E+00
 -1.51973982E+01  7.59869910E+00  7.59869910E+00 -1.51973982E+01  7.59869910E+00
  7.59869910E+00 -1.51973982E+01  7.59869910E+00  7.59869910E+00 -1.51973982E+01
  7.59869910E+00  7.59869910E+00 -1.51973982E+01  7.59869910E+00  7.59869910E+00
 -1.51973982E+01  7.59869910E+00  7.59869910E+00 -1.51973982E+01  7.59869910E+00
  7.59869910E+00 -1.51973982E+01  7.59869910E+00  7.59869910E+00 -1.51973982E+01
  7.59869910E+00  7.59869910E+00 -1.51973982E+01  7.59869910E+00  7.59869910E+00
 -1.51973982E+01  7.59869910E+00  7.59869910E+00 -1.51973982E+01  7.59869910E+00
  7.59869910E+00 -1.51973982E+01  7.59869910E+00  7.59869910E+00 -1.51973982E+01
  7.59869910E+00  7.59869910E+00 -1.51973982E+01  7.59869910E+00  7.59869910E+00
 -1.51973982E+01  7.59869910E+00  7.59869910E+00 -1.51973982E+01  7.59869910E+00
  7.59869910E+00 -1.51973982E+01  7.59869910E+00  7.59869910E+00 -1.51973982E+01
  7.59869910E+00  7.59869910E+00 -1.51973982E+01  7.59869910E+00  7.59869910E+00
 -1.51973982E+01  7.59869910E+00  7.59869910E+00 -1.51973982E+01  7.59869910E+00
  7.59869910E+00 -1.51973982E+01  7.59869910E+00  7.59869910E+00 -1.51973982E+01
  7.59869910E+00  7.59869910E+00 -1.51973982E+01  7.59869910E+00  7.59869910E+00
 -1.51973982E+01  7.59869910E+00  7.59869910E+00 -1.51973982E+01  7.59869910E+00
  7.59869910E+00 -1.51973982E+01  7.59869910E+00  7.59869910E+00 -1.51973982E+01
  7.59869910E+00  7.59869910E+00 -1.51973982E+01  7.59869910E+00  7.59869910E+00
 -1.51973982E+01  7.59869910E+00  7.59869910E+00 -1.51973982E+01  7.59869910E+00
  7.59869910E+00 -1.51973982E+01  7.59869910E+00  7.59869910E+00 -1.51973982E+01
  7.59869910E+00  7.59869910E+00 -1.51973982E+01  7.59869910E+00  7.59869910E+00
 -1.51973982E+01  7.59869910E+00  7.59869910E+00 -1.51973982E+01  7.59869910E+00
  7.59869910E+00 -1.51973982E+01  7.59869910E+00  7.59869910E+00 -1.51973982E+01
  7.59869910E+00  7.59869910E+00 -1.51973982E+01  7.59869910E+00  7.59869910E+00
 -1.51973982E+01  7.59869910E+00  7.59869910E+00 -1.51973982E+01  7.59869910E+00
  7.59869910E+00 -1.51973982E+01  7.59869910E+00  7.59869910E+00 -1.51973982E+01
  7.59869910E+00  7.59869910E+00 -1.51973982E+01  7.59869910E+00  7.59869910E+00
 -1.51973982E+01  7.59869910E+00  7.59869910E+00 -1.51973982E+01  7.59869910E+00
  7.59869910E+00 -1.51973982E+01  7.59869910E+00  7.59869910E+00 -1.51973982E+01
  7.59869910E+00  7.59869910E+00 -1.51973982E+01  7.59869910E+00  7.59869910E+00
 -1.51973982E+01  7.59869910E+00  7.59869910E+00 -1.51973982E+01  7.59869910E+00
  7.59869910E+00 -1.51973982E+01  7.59869910E+00  7.59869910E+00 -1.51973982E+01
  7.59869910E+00  7.59869910E+00 -1.51973982E+01  7.59869910E+00  7.59869910E+00
 -1.51973982E+01  7.59869910E+00  7.59869910E+00 -1.51973982E+01  7.59869910E+00
  7.59869910E+00 -1.51973982E+01  7.59869910E+00  7.59869910E+00 -1.51973982E+01
  7.59869910E+00  7.59869910E+00 -1.51973982E+01  7.59869910E+00  7.59869910E+00
 -1.51973982E+01  7.59869910E+00  7.59869910E+00 -1.51973982E+01  7.59869910E+00
  7.59869910E+00 -1.51973982E+01  7.59869910E+00  7.59869910E+00 -1.51973982E+01
  7.59869910E+00  7.59869910E+00 -1.51973982E+01  7.59869910E+00  7.59869910E+00
 -1.51973982E+01  7.59869910E+00  7.59869910E+00 -1.51973982E+01  7.59869910E+00
  7.59869910E+00 -1.51973982E+01  7.59869910E+00  7.59869910E+00 -1.51973982E+01
  7.59869910E+00  7.59869910E+00 -1.51973982E+01  7.59869910E+00  7.59869910E+00
 -1.51973982E+01  7.59869910E+00  7.59869910E+00 -1.51973982E+01  7.59869910E+00
  7.59869910E+00 -1.51973982E+01  7.59869910E+00  7.59869910E+00 -1.51973982E+01
  7.59869910E+00  7.59869910E+00 -1.51973982E+01  7.59869910E+00  7.59869910E+00
 -1.51973982E+01  7.59869910E+00  7.59869910E+00 -1.51973982E+01  7.59869910E+00
  7.59869910E+00 -1.51973982E+01  7.59869910E+00  7.59869910E+00 -1.51973982E+01
  7.59869910E+00  7.59869910E+00 -1.51973982E+01  7.59869910E+00  7.59869910E+00
 -1.51973982E+01  7.59869910E+00  7.59869910E+00 -1.51973982E+01  7.59869910E+00
  7.59869910E+00 -1.51973982E+01  7.59869910E+00  7.59869910E+00 -1.51973982E+01
  7.59869910E+00  7.59869910E+00 -1.51973982E+01  7.59869910E+00  7.59869910E+00
 -1.51973982E+01  7.59869910E+00  7.59869910E+00 -1.51973982E+01  7.59869910E+00
  7.59869910E+00 -1.51973982E+01  7.59869910E+00  7.59869910E+00 -1.51973982E+01
  7.59869910E+00  7.59869910E+00 -1.51973982E+01  7.59869910E+00  7.59869910E+00
 -1.51973982E+01  7.59869910E+00  7.59869910E+00 -1.51973982E+01  7.59869910E+00
  7.59869910E+00 -1.51973982E+01  7.59869910E+00  7.59869910E+00 -1.51973982E+01
  7.59869910E+00  7.59869910E+00 -1.51973982E+01  7.59869910E+00  7.59869910E+00
 -1.51973982E+01  7.59869910E+00  7.59869910E+00 -1.51973982E+01  7.59869910E+00
  7.59869910E+00 -1.51973982E+01  7.59869910E+00  7.59869910E+00 -1.51973982E+01
  7.59869910E+00  7.59869910E+00 -1.51973982E+01  7.59869910E+00  7.59869910E+00
 -1.51973982E+01  7.59869910E+00  7.59869910E+00 -1.51973982E+01  7.59869910E+00
  7.59869910E+00 -1.51973982E+01  7.59869910E+00  7.59869910E+00 -1.51973982E+01
  7.59869910E+00  7.59869910E+00 -1.51973982E+01  7.59869910E+00  7.59869910E+00
 -1.51973982E+01  7.59869910E+00  7.59869910E+00 -1.51973982E+01  7.59869910E+00
  7.59869910E+00 -1.51973982E+01  7.59869910E+00  7.59869910E+00 -1.51973982E+01
  7.59869910E+00  7.59869910E+00 -1.51973982E+01  7.59869910E+00  7.59869910E+00
 -1.51973982E+01  7.59869910E+00  7.59869910E+00 -1.51973982E+01  7.59869910E+00
  7.59869910E+00 -1.51973982E+01  7.59869910E+00  7.59869910E+00 -1.51973982E+01
  7.59869910E+00  7.59869910E+00 -1.51973982E+01  7.59869910E+00  7.59869910E+00
 -1.51973982E+01  7.59869910E+00  7.59869910E+00 -1.51973982E+01  7.59869910E+00
  7.59869910E+00 -1.51973982E+01  7.59869910E+00  7.59869910E+00 -1.51973982E+01
  7.59869910E+00  7.59869910E+00 -1.51973982E+01  7.59869910E+00  7.59869910E+00
 -1.51973982E+01  7.59869910E+00  7.59869910E+00 -1.51973982E+01  7.59869910E+00
  7.59869910E+00 -1.51973982E+01  7.59869910E+00  7.59869910E+00 -1.51973982E+01
  7.59869910E+00  7.59869910E+00 -1.51973982E+01  7.59869910E+00  7.59869910E+00
 -1.51973982E+01  7.59869910E+00  7.59869910E+00 -1.51973982E+01  7.59869910E+00
  7.59869910E+00 -1.51973982E+01  7.59869910E+00  7.59869910E+00 -1.51973982E+01
  7.59869910E+00  7.59869910E+00 -1.51973982E+01  7.59869910E+00  7.59869910E+00
 -1.51973982E+01  7.59869910E+00  7.59869910E+00 -1.51973982E+01  7.59869910E+00
  7.59869910E+00 -1.51973982E+01  7.59869910E+00  7.59869910E+00 -1.51973982E+01
  7.59869910E+00  7.59869910E+00 -1.51973982E+01  7.59869910E+00  7.59869910E+00
 -1.51973982E+01  7.59869910E+00  7.59869910E+00 -1.51973982E+01  7.59869910E+00
  7.59869910E+00 -1.51973982E+01  7.59869910E+00  7.59869910E+00 -1.51973982E+01
  7.59869910E+00  7.59869910E+00 -1.51973982E+01  7.59869910E+00  7.59869910E+00
 -1.51973982E+01  7.59869910E+00  7.59869910E+00 -1.51973982E+01  7.59869910E+00
  7.59869910E+00 -1.51973982E+01  7.59869910E+00  7.59869910E+00 -1.51973982E+01
  7.59869910E+00  7.59869910E+00 -1.51973982E+01  7.59869910E+00  7.59869910E+00
 -1.51973982E+01  7.59869910E+00  7.59869910E+00 -1.51973982E+01  7.59869910E+00
  7.59869910E+00 -1.51973982E+01  7.59869910E+00  7.59869910E+00 -1.51973982E+01
  7.59869910E+00  7.59869910E+00 -1.51973982E+01  7.59869910E+00  7.59869910E+00
 -1.51973982E+01  7.59869910E+00  7.59869910E+00 -1.51973982E+01  7.59869910E+00
  7.59869910E+00 -1.51973982E+01  7.59869910E+00  7.59869910E+00 -1.51973982E+01
  7.59869910E+00  7.59869910E+00 -1.51973982E+01  7.59869910E+00  7.59869910E+00
 -1.51973982E+01  7.59869910E+00  7.59869910E+00 -1.51973982E+01  7.59869910E+00
  7.59869910E+00 -1.51973982E+01  7.59869910E+00  7.59869910E+00 -1.51973982E+01
  7.59869910E+00  7.59869910E+00 -1.51973982E+01  7.59869910E+00  7.59869910E+00
 -1.51973982E+01  7.59869910E+00  7.59869910E+00 -1.51973982E+01  7.59869910E+00
  7.59869910E+00 -1.51973982E+01  7.59869910E+00  7.59869910E+00 -1.51973982E+01
  7.59869910E+00  7.59869910E+00 -1.51973982E+01  7.59869910E+00  7.59869910E+00
 -1.51973982E+01  7.59869910E+00  7.59869910E+00 -1.51973982E+01  7.59869910E+00
  7.59869910E+00 -1.51973982E+01  7.59869910E+00  7.59869910E+00 -1.51973982E+01
  7.59869910E+00  7.59869910E+00 -1.51973982E+01  7.59869910E+00  7.59869910E+00
 -1.51973982E+01  7.59869910E+00  7.59869910E+00 -1.51973982E+01  7.59869910E+00
  7.59869910E+00 -1.51973982E+01  7.59869910E+00  7.59869910E+00 -1.51973982E+01
  7.59869910E+00  7.59869910E+00 -1.51973982E+01  7.59869910E+00  7.59869910E+00
 -1.51973982E+01  7.59869910E+00  7.59869910E+00 -1.51973982E+01  7.59869910E+00
  7.59869910E+00 -1.51973982E+01  7.59869910E+00  7.59869910E+00 -1.51973982E+01
  7.59869910E+00  7.59869910E+00 -1.51973982E+01  7.59869910E+00  7.59869910E+00
 -1.51973982E+01  7.59869910E+00  7.59869910E+00 -1.51973982E+01  7.59869910E+00
  7.59869910E+00 -1.51973982E+01  7.59869910E+00  7.59869910E+00 -1.51973982E+01
  7.59869910E+00  7.59869910E+00 -1.51973982E+01  7.59869910E+00  7.59869910E+00
 -1.51973982E+01  7.59869910E+00  7.59869910E+00 -1.51973982E+01  7.59869910E+00
  7.59869910E+00 -1.51973982E+01  7.59869910E+00  7.59869910E+00 -1.51973982E+01
  7.59869910E+00  7.59869910E+00 -1.51973982E+01  7.59869910E+00  7.59869910E+00
 -1.51973982E+01  7.59869910E+00  7.59869910E+00 -1.51973982E+01  7.59869910E+00
  7.59869910E+00 -1.51973982E+01  7.59869910E+00  7.59869910E+00 -1.51973982E+01
  7.59869910E+00  7.59869910E+00 -1.51973982E+01  7.59869910E+00  7.59869910E+00
 -1.51973982E+01  7.59869910E+00  7.59869910E+00 -1.51973982E+01  7.59869910E+00
  7.59869910E+00 -1.51973982E+01  7.59869910E+00  7.59869910E+00 -1.51973982E+01
  7.59869910E+00  7.59869910E+00 -1.51973982E+01  7.59869910E+00  7.59869910E+00
 -1.51973982E+01  7.59869910E+00  7.59869910E+00 -1.51973982E+01  7.59869910E+00
  7.59869910E+00 -1.51973982E+01  7.59869910E+00  7.59869910E+00 -1.51973982E+01
  7.59869910E+00  7.59869910E+00 -1.51973982E+01  7.59869910E+00  7.59869910E+00
 -1.51973982E+01  7.59869910E+00  7.59869910E+00 -1.51973982E+01  7.59869910E+00
  7.59869910E+00 -1.51973982E+01  7.59869910E+00  7.59869910E+00 -1.51973982E+01
  7.59869910E+00  7.59869910E+00 -1.51973982E+01  7.59869910E+00  7.59869910E+00
 -1.51973982E+01  7.59869910E+00  7.59869910E+00 -1.51973982E+01  7.59869910E+00
  7.59869910E+00 -1.51973982E+01  7.59869910E+00  7.59869910E+00 -1.51973982E+01
  7.59869910E+00  7.59869910E+00 -1.51973982E+01  7.59869910E+00  7.59869910E+00
 -1.51973982E+01  7.59869910E+00  7.59869910E+00 -1.51973982E+01  7.59869910E+00
  7.59869910E+00 -1.51973982E+01  7.59869910E+00  7.59869910E+00 -1.51973982E+01
  7.59869910E+00  7.59869910E+00 -1.51973982E+01  7.59869910E+00  7.59869910E+00
 -1.51973982E+01  7.59869910E+00  7.59869910E+00 -1.51973982E+01  7.59869910E+00
  7.59869910E+00 -1.51973982E+01  7.59869910E+00  7.59869910E+00 -1.51973982E+01
  7.59869910E+00  7.59869910E+00 -1.51973982E+01  7.59869910E+00  7.59869910E+00
 -1.51973982E+01  7.59869910E+00  7.59869910E+00 -1.51973982E+01  7.59869910E+00
  7.59869910E+00 -1.51973982E+01  7.59869910E+00  7.59869910E+00 -1.51973982E+01
  7.59869910E+00  7.59869910E+00 -1.51973982E+01  7.59869910E+00  7.59869910E+00
 -1.51973982E+01  7.59869910E+00  7.59869910E+00 -1.51973982E+01  7.59869910E+00
  7.59869910E+00 -1.51973982E+01  7.59869910E+00  7.59869910E+00 -1.51973982E+01
  7.59869910E+00  7.59869910E+00 -1.51973982E+01  7.59869910E+00  7.59869910E+00
 -1.51973982E+01  7.59869910E+00  7.59869910E+00 -1.51973982E+01  7.59869910E+00
  7.59869910E+00 -1.51973982E+01  7.59869910E+00  7.59869910E+00 -1.51973982E+01
  7.59869910E+00  7.59869910E+00 -1.51973982E+01  7.59869910E+00  7.59869910E+00
 -1.51973982E+01  7.59869910E+00  7.59869910E+00 -1.51973982E+01  7.59869910E+00
  7.59869910E+00 -1.51973982E+01  7.59869910E+00  7.59869910E+00 -1.51973982E+01
  7.59869910E+00  7.59869910E+00 -1.51973982E+01  7.59869910E+00  7.59869910E+00
 -1.51973982E+01  7.59869910E+00  7.59869910E+00 -1.51973982E+01  7.59869910E+00
  7.59869910E+00 -1.51973982E+01  7.59869910E+00  7.59869910E+00 -1.51973982E+01
  7.59869910E+00  7.59869910E+00 -1.51973982E+01  7.59869910E+00  7.59869910E+00
 -1.51973982E+01  7.59869910E+00  7.59869910E+00 -1.51973982E+01  7.59869910E+00
  7.59869910E+00 -1.51973982E+01  7.59869910E+00  7.59869910E+00 -1.51973982E+01
  7.59869910E+00  7.59869910E+00 -1.51973982E+01  7.59869910E+00  7.59869910E+00
 -1.51973982E+01  7.59869910E+00  7.59869910E+00 -1.51973982E+01  7.59869910E+00
  7.59869910E+00 -1.51973982E+01  7.59869910E+00  7.59869910E+00 -1.51973982E+01
  7.59869910E+00  7.59869910E+00 -1.51973982E+01  7.59869910E+00  7.59869910E+00
 -1.51973982E+01  7.59869910E+00  7.59869910E+00 -1.51973982E+01  7.59869910E+00
  7.59869910E+00 -1.51973982E+01  7.59869910E+00  7.59869910E+00 -1.51973982E+01
  7.59869910E+00  7.59869910E+00 -1.51973982E+01  7.59869910E+00  7.59869910E+00
 -1.51973982E+01  7.59869910E+00  7.59869910E+00 -1.51973982E+01  7.59869910E+00
  7.59869910E+00 -1.51973982E+01  7.59869910E+00  7.59869910E+00 -1.51973982E+01
  7.59869910E+00  7.59869910E+00 -1.51973982E+01  7.59869910E+00  7.59869910E+00
 -1.51973982E+01  7.59869910E+00  7.59869910E+00 -1.51973982E+01  7.59869910E+00
  7.59869910E+00 -1.51973982E+01  7.59869910E+00  7.59869910E+00 -1.51973982E+01
  7.59869910E+00  7.59869910E+00 -1.51973982E+01  7.59869910E+00  7.59869910E+00
 -1.51973982E+01  7.59869910E+00  7.59869910E+00 -1.51973982E+01  7.59869910E+00
  7.59869910E+00 -1.51973982E+01  7.59869910E+00  7.59869910E+00 -1.51973982E+01
  7.59869910E+00  7.59869910E+00 -1.51973982E+01  7.59869910E+00  7.59869910E+00
 -1.51973982E+01  7.59869910E+00  7.59869910E+00 -1.51973982E+01  7.59869910E+00
  7.59869910E+00 -1.51973982E+01  7.59869910E+00  7.59869910E+00 -1.51973982E+01
  7.59869910E+00  7.59869910E+00 -1.51973982E+01  7.59869910E+00  7.59869910E+00
 -1.51973982E+01  7.59869910E+00  7.59869910E+00 -1.51973982E+01  7.59869910E+00
  7.59869910E+00 -1.51973982E+01  7.59869910E+00  7.59869910E+00 -1.51973982E+01
  7.59869910E+00  7.59869910E+00 -1.51973982E+01  7.59869910E+00  7.59869910E+00
 -1.51973982E+01  7.59869910E+00  7.59869910E+00 -1.51973982E+01  7.59869910E+00
  7.59869910E+00 -1.51973982E+01  7.59869910E+00  7.59869910E+00 -1.51973982E+01
  7.59869910E+00  7.59869910E+00 -1.51973982E+01  7.59869910E+00  7.59869910E+00
 -1.51973982E+01  7.59869910E+00  7.59869910E+00 -1.51973982E+01  7.59869910E+00
  7.59869910E+00 -1.51973982E+01  7.59869910E+00  7.59869910E+00 -1.51973982E+01
  7.59869910E+00  7.59869910E+00 -1.51973982E+01  7.59869910E+00  7.59869910E+00
 -1.51973982E+01  7.59869910E+00  7.59869910E+00 -1.51973982E+01  7.59869910E+00
  7.59869910E+00 -1.51973982E+01  7.59869910E+00  7.59869910E+00 -1.51973982E+01
  7.59869910E+00  7.59869910E+00 -1.51973982E+01  7.59869910E+00  7.59869910E+00
 -1.51973982E+01  7.59869910E+00  7.59869910E+00 -1.51973982E+01  7.59869910E+00
  7.59869910E+00 -1.51973982E+01  7.59869910E+00  7.59869910E+00 -1.51973982E+01
  7.59869910E+00  7.59869910E+00 -1.51973982E+01  7.59869910E+00  7.59869910E+00
 -1.51973982E+01  7.59869910E+00  7.59869910E+00 -1.51973982E+01  7.59869910E+00
  7.59869910E+00 -1.51973982E+01  7.59869910E+00  7.59869910E+00 -1.51973982E+01
  7.59869910E+00  7.59869910E+00 -1.51973982E+01  7.59869910E+00  7.59869910E+00
 -1.51973982E+01  7.59869910E+00  7.59869910E+00 -1.51973982E+01  7.59869910E+00
  7.59869910E+00 -1.51973982E+01  7.59869910E+00  7.59869910E+00 -1.51973982E+01
  7.59869910E+00  7.59869910E+00 -1.51973982E+01  7.59869910E+00  7.59869910E+00
 -1.51973982E+01  7.59869910E+00  7.59869910E+00 -1.51973982E+01  7.59869910E+00
  7.59869910E+00 -1.51973982E+01  7.59869910E+00  7.59869910E+00 -1.51973982E+01
  7.59869910E+00  7.59869910E+00 -1.51973982E+01  7.59869910E+00  7.59869910E+00
 -1.51973982E+01  7.59869910E+00  7.59869910E+00 -1.51973982E+01  7.59869910E+00
  7.59869910E+00 -1.51973982E+01  7.59869910E+00  7.59869910E+00 -1.51973982E+01
  7.59869910E+00  7.59869910E+00 -1.51973982E+01  7.59869910E+00  7.59869910E+00
 -1.51973982E+01  7.59869910E+00  7.59869910E+00 -1.51973982E+01  7.59869910E+00
  7.59869910E+00 -1.51973982E+01  7.59869910E+00  7.59869910E+00 -1.51973982E+01
  7.59869910E+00  7.59869910E+00 -1.51973982E+01  7.59869910E+00  7.59869910E+00
 -1.51973982E+01  7.59869910E+00  7.59869910E+00 -1.51973982E+01  7.59869910E+00
  7.59869910E+00 -1.51973982E+01  7.59869910E+00  7.59869910E+00 -1.51973982E+01
  7.59869910E+00  7.59869910E+00 -1.51973982E+01  7.59869910E+00  7.59869910E+00
 -1.51973982E+01  7.59869910E+00  7.59869910E+00 -1.51973982E+01  7.59869910E+00
  7.59869910E+00 -1.51973982E+01  7.59869910E+00  7.59869910E+00 -1.51973982E+01
  7.59869910E+00  7.59869910E+00 -1.51973982E+01  7.59869910E+00  7.59869910E+00
 -1.51973982E+01  7.59869910E+00  7.59869910E+00 -1.51973982E+01  7.59869910E+00
  7.59869910E+00 -1.51973982E+01  7.59869910E+00  7.59869910E+00 -1.51973982E+01
  7.59869910E+00  7.59869910E+00 -1.51973982E+01  7.59869910E+00  7.59869910E+00
 -1.51973982E+01  7.59869910E+00  7.59869910E+00 -1.51973982E+01  7.59869910E+00
  7.59869910E+00 -1.51973982E+01  7.59869910E+00  7.59869910E+00 -1.51973982E+01
  7.59869910E+00  7.59869910E+00 -1.51973982E+01  7.59869910E+00  7.59869910E+00
 -1.51973982E+01  7.59869910E+00  7.59869910E+00 -1.51973982E+01  7.59869910E+00
  7.59869910E+00 -1.51973982E+01  7.59869910E+00  7.59869910E+00 -1.51973982E+01
  7.59869910E+00  7.59869910E+00 -1.51973982E+01  7.59869910E+00  7.59869910E+00
 -1.51973982E+01  7.59869910E+00  7.59869910E+00 -1.51973982E+01  7.59869910E+00
  7.59869910E+00 -1.51973982E+01  7.59869910E+00  7.59869910E+00 -1.51973982E+01
  7.59869910E+00  7.59869910E+00 -1.51973982E+01  7.59869910E+00  7.59869910E+00
 -1.51973982E+01  7.59869910E+00  7.59869910E+00 -1.51973982E+01  7.59869910E+00
  7.59869910E+00 -1.51973982E+01  7.59869910E+00  7.59869910E+00 -1.51973982E+01
  7.59869910E+00  7.59869910E+00 -1.51973982E+01  7.59869910E+00  7.59869910E+00
 -1.51973982E+01  7.59869910E+00  7.59869910E+00 -1.51973982E+01  7.59869910E+00
  7.59869910E+00 -1.51973982E+01  7.59869910E+00  7.59869910E+00 -1.51973982E+01
  7.59869910E+00  7.59869910E+00 -1.51973982E+01  7.59869910E+00  7.59869910E+00
 -1.51973982E+01  7.59869910E+00  7.59869910E+00 -1.51973982E+01  7.59869910E+00
  7.59869910E+00 -1.51973982E+01  7.59869910E+00  7.59869910E+00 -1.51973982E+01
  7.59869910E+00  7.59869910E+00 -1.51973982E+01  7.59869910E+00  7.59869910E+00
 -1.51973982E+01  7.59869910E+00  7.59869910E+00 -1.51973982E+01  7.59869910E+00
  7.59869910E+00 -1.51973982E+01  7.59869910E+00  7.59869910E+00 -1.51973982E+01
  7.59869910E+00  7.59869910E+00 -1.51973982E+01  7.59869910E+00  7.59869910E+00
 -1.51973982E+01  7.59869910E+00  7.59869910E+00 -1.51973982E+01  7.59869910E+00
  7.59869910E+00 -1.51973982E+01  7.59869910E+00  7.59869910E+00 -1.51973982E+01
  7.59869910E+00  7.59869910E+00 -1.51973982E+01  7.59869910E+00  7.59869910E+00
 -1.51973982E+01  7.59869910E+00  7.59869910E+00 -1.51973982E+01  7.59869910E+00
  7.59869910E+00 -1.51973982E+01  7.59869910E+00  7.59869910E+00 -1.51973982E+01
  7.59869910E+00  7.59869910E+00 -1.51973982E+01  7.59869910E+00  7.59869910E+00
 -1.51973982E+01  7.59869910E+00  7.59869910E+00 -1.51973982E+01  7.59869910E+00
  7.59869910E+00 -1.51973982E+01  7.59869910E+00  7.59869910E+00 -1.51973982E+01
  7.59869910E+00  7.59869910E+00 -1.51973982E+01  7.59869910E+00  7.59869910E+00
 -1.51973982E+01  7.59869910E+00  7.59869910E+00 -1.51973982E+01  7.59869910E+00
  7.59869910E+00 -1.51973982E+01  7.59869910E+00  7.59869910E+00 -1.51973982E+01
  7.59869910E+00  7.59869910E+00 -1.51973982E+01  7.59869910E+00  7.59869910E+00
 -1.51973982E+01  7.59869910E+00  7.59869910E+00 -1.51973982E+01  7.59869910E+00
  7.59869910E+00 -1.51973982E+01  7.59869910E+00  7.59869910E+00 -1.51973982E+01
  7.59869910E+00  7.59869910E+00 -1.51973982E+01  7.59869910E+00  7.59869910E+00
 -1.51973982E+01  7.59869910E+00  7.59869910E+00 -1.51973982E+01  7.59869910E+00
  7.59869910E+00 -1.51973982E+01  7.59869910E+00  7.59869910E+00 -1.51973982E+01
  7.59869910E+00  7.59869910E+00 -1.51973982E+01  7.59869910E+00  7.59869910E+00
 -1.51973982E+01  7.59869910E+00  7.59869910E+00 -1.51973982E+01  7.59869910E+00
  7.59869910E+00 -1.51973982E+01  7.59869910E+00  7.59869910E+00 -1.51973982E+01
  7.59869910E+00  7.59869910E+00 -1.51973982E+01  7.59869910E+00  7.59869910E+00
 -1.51973982E+01  7.59869910E+00  7.59869910E+00 -1.51973982E+01  7.59869910E+00
  7.59869910E+00 -1.51973982E+01  7.59869910E+00  7.59869910E+00 -1.51973982E+01
  7.59869910E+00  7.59869910E+00 -1.51973982E+01  7.59869910E+00  7.59869910E+00
 -1.51973982E+01  7.59869910E+00  7.59869910E+00 -1.51973982E+01  7.59869910E+00
  7.59869910E+00 -1.51973982E+01  7.59869910E+00  7.59869910E+00 -1.51973982E+01
  7.59869910E+00  7.59869910E+00 -1.51973982E+01  7.59869910E+00  7.59869910E+00
 -1.51973982E+01  7.59869910E+00  7.59869910E+00 -1.51973982E+01  7.59869910E+00
  7.59869910E+00 -1.51973982E+01  7.59869910E+00  7.59869910E+00 -1.51973982E+01
  7.59869910E+00  7.59869910E+00 -1.51973982E+01  7.59869910E+00  7.59869910E+00
 -1.51973982E+01  7.59869910E+00  7.59869910E+00 -1.51973982E+01  7.59869910E+00
  7.59869910E+00 -1.51973982E+01  7.59869910E+00  7.59869910E+00 -1.51973982E+01
  7.59869910E+00  7.59869910E+00 -1.51973982E+01  7.59869910E+00  7.59869910E+00
 -1.51973982E+01  7.59869910E+00  7.59869910E+00 -1.51973982E+01  7.59869910E+00
  7.59869910E+00 -1.51973982E+01  7.59869910E+00  7.59869910E+00 -1.51973982E+01
  7.59869910E+00  7.59869910E+00 -1.51973982E+01  7.59869910E+00  7.59869910E+00
 -1.51973982E+01  7.59869910E+00  7.59869910E+00 -1.51973982E+01  7.59869910E+00
  7.59869910E+00 -1.51973982E+01  7.59869910E+00  7.59869910E+00 -1.51973982E+01
  7.59869910E+00  7.59869910E+00 -1.51973982E+01  7.59869910E+00  7.59869910E+00
 -1.51973982E+01  7.59869910E+00  7.59869910E+00 -1.51973982E+01  7.59869910E+00
  7.59869910E+00 -1.51973982E+01  7.59869910E+00  7.59869910E+00 -1.51973982E+01
  7.59869910E+00  7.59869910E+00 -1.51973982E+01  7.59869910E+00  7.59869910E+00
 -1.51973982E+01  7.59869910E+00  7.59869910E+00 -1.51973982E+01  7.59869910E+00
  7.59869910E+00 -1.51973982E+01  7.59869910E+00  7.59869910E+00 -1.51973982E+01
  7.59869910E+00  7.59869910E+00 -1.51973982E+01  7.59869910E+00  7.59869910E+00
 -1.51973982E+01  7.59869910E+00  7.59869910E+00 -1.51973982E+01  7.59869910E+00
  7.59869910E+00 -1.51973982E+01  7.59869910E+00  7.59869910E+00 -1.51973982E+01
  7.59869910E+00  7.59869910E+00 -1.51973982E+01  7.59869910E+00  7.59869910E+00
 -1.51973982E+01  7.59869910E+00  7.59869910E+00 -1.51973982E+01  7.59869910E+00
  7.59869910E+00 -1.51973982E+01  7.59869910E+00  7.59869910E+00 -1.51973982E+01
  7.59869910E+00  7.59869910E+00 -1.51973982E+01  7.59869910E+00  7.59869910E+00
 -1.51973982E+01  7.59869910E+00  7.59869910E+00 -1.51973982E+01  7.59869910E+00
  7.59869910E+00 -1.51973982E+01  7.59869910E+00  7.59869910E+00 -1.51973982E+01
  7.59869910E+00  7.59869910E+00 -1.51973982E+01  7.59869910E+00  7.59869910E+00
 -1.51973982E+01  7.59869910E+00  7.59869910E+00 -1.51973982E+01  7.59869910E+00
  7.59869910E+00 -1.51973982E+01  7.59869910E+00  7.59869910E+00 -1.51973982E+01
  7.59869910E+00  7.59869910E+00 -1.51973982E+01  7.59869910E+00  7.59869910E+00
 -1.51973982E+01  7.59869910E+00  7.59869910E+00 -1.51973982E+01  7.59869910E+00
  7.59869910E+00 -1.51973982E+01  7.59869910E+00  7.59869910E+00 -1.51973982E+01
  7.59869910E+00  7.59869910E+00 -1.51973982E+01  7.59869910E+00  7.59869910E+00
 -1.51973982E+01  7.59869910E+00  7.59869910E+00 -1.51973982E+01  7.59869910E+00
  7.59869910E+00 -1.51973982E+01  7.59869910E+00  7.59869910E+00 -1.51973982E+01
  7.59869910E+00  7.59869910E+00 -1.51973982E+01  7.59869910E+00  7.59869910E+00
 -1.51973982E+01  7.59869910E+00  7.59869910E+00 -1.51973982E+01  7.59869910E+00
  7.59869910E+00 -1.51973982E+01  7.59869910E+00  7.59869910E+00 -1.51973982E+01
  7.59869910E+00  7.59869910E+00 -1.51973982E+01  7.59869910E+00  7.59869910E+00
 -1.51973982E+01  7.59869910E+00  7.59869910E+00 -1.51973982E+01  7.59869910E+00
  7.59869910E+00 -1.51973982E+01  7.59869910E+00  7.59869910E+00 -1.51973982E+01
  7.59869910E+00  7.59869910E+00 -1.51973982E+01  7.59869910E+00  7.59869910E+00
 -1.51973982E+01  7.59869910E+00  7.59869910E+00 -1.51973982E+01  7.59869910E+00
  7.59869910E+00 -1.51973982E+01  7.59869910E+00  7.59869910E+00 -1.51973982E+01
  7.59869910E+00  7.59869910E+00 -1.51973982E+01  7.59869910E+00  7.59869910E+00
 -1.51973982E+01  7.59869910E+00  7.59869910E+00 -1.51973982E+01  7.59869910E+00
  7.59869910E+00 -1.51973982E+01  7.59869910E+00  7.59869910E+00 -1.51973982E+01
  7.59869910E+00  7.59869910E+00 -1.51973982E+01  7.59869910E+00  7.59869910E+00
 -1.51973982E+01  7.59869910E+00  7.59869910E+00 -1.51973982E+01  7.59869910E+00
  7.59869910E+00 -1.51973982E+01  7.59869910E+00  7.59869910E+00 -1.51973982E+01
  7.59869910E+00  7.59869910E+00 -1.51973982E+01  7.59869910E+00  7.59869910E+00
 -1.51973982E+01  7.59869910E+00  7.59869910E+00 -1.51973982E+01  7.59869910E+00
  7.59869910E+00 -1.51973982E+01  7.59869910E+00  7.59869910E+00 -1.51973982E+01
  7.59869910E+00  7.59869910E+00 -1.51973982E+01  7.59869910E+00  7.59869910E+00
 -1.51973982E+01  7.59869910E+00  7.59869910E+00 -1.51973982E+01  7.59869910E+00
  7.59869910E+00 -1.51973982E+01  7.59869910E+00  7.59869910E+00 -1.51973982E+01
  7.59869910E+00  7.59869910E+00 -1.51973982E+01  7.59869910E+00  7.59869910E+00
 -1.51973982E+01  7.59869910E+00  7.59869910E+00 -1.51973982E+01  7.59869910E+00
  7.59869910E+00 -1.51973982E+01  7.59869910E+00  7.59869910E+00 -1.51973982E+01
  7.59869910E+00  7.59869910E+00 -1.51973982E+01  7.59869910E+00  7.59869910E+00
 -1.51973982E+01  7.59869910E+00  7.59869910E+00 -1.51973982E+01  7.59869910E+00
  7.59869910E+00 -1.51973982E+01  7.59869910E+00  7.59869910E+00 -1.51973982E+01
  7.59869910E+00  7.59869910E+00 -1.51973982E+01  7.59869910E+00  7.59869910E+00
 -1.51973982E+01  7.59869910E+00  7.59869910E+00 -1.51973982E+01  7.59869910E+00
  7.59869910E+00 -1.51973982E+01  7.59869910E+00  7.59869910E+00 -1.51973982E+01
  7.59869910E+00  7.59869910E+00 -1.51973982E+01  7.59869910E+00  7.59869910E+00
 -1.51973982E+01  7.59869910E+00  7.59869910E+00 -1.51973982E+01  7.59869910E+00
  7.59869910E+00 -1.51973982E+01  7.59869910E+00  7.59869910E+00 -1.51973982E+01
  7.59869910E+00  7.59869910E+00 -1.51973982E+01  7.59869910E+00  7.59869910E+00
 -1.51973982E+01  7.59869910E+00  7.59869910E+00 -1.51973982E+01  7.59869910E+00
  7.59869910E+00 -1.51973982E+01  7.59869910E+00  7.59869910E+00 -1.51973982E+01
  7.59869910E+00  7.59869910E+00 -1.51973982E+01  7.59869910E+00  7.59869910E+00
 -1.51973982E+01  7.59869910E+00  7.59869910E+00 -1.51973982E+01  7.59869910E+00
  7.59869910E+00 -1.51973982E+01  7.59869910E+00  7.59869910E+00 -1.51973982E+01
  7.59869910E+00  7.59869910E+00 -1.51973982E+01  7.59869910E+00  7.59869910E+00
 -1.51973982E+01  7.59869910E+00  7.59869910E+00 -1.51973982E+01  7.59869910E+00
  7.59869910E+00 -1.51973982E+01  7.59869910E+00  7.59869910E+00 -1.51973982E+01
  7.59869910E+00  7.59869910E+00 -1.51973982E+01  7.59869910E+00  7.59869910E+00
 -1.51973982E+01  7.59869910E+00  7.59869910E+00 -1.51973982E+01  7.59869910E+00
  7.59869910E+00 -1.51973982E+01  7.59869910E+00  7.59869910E+00 -1.51973982E+01
  7.59869910E+00  7.59869910E+00 -1.51973982E+01  7.59869910E+00  7.59869910E+00
 -1.51973982E+01  7.59869910E+00  7.59869910E+00 -1.51973982E+01  7.59869910E+00
  7.59869910E+00 -1.51973982E+01  7.59869910E+00  7.59869910E+00 -1.51973982E+01
  7.59869910E+00  7.59869910E+00 -1.51973982E+01  7.59869910E+00  7.59869910E+00
 -1.51973982E+01  7.59869910E+00  7.59869910E+00 -1.51973982E+01  7.59869910E+00
  7.59869910E+00 -1.51973982E+01  7.59869910E+00  7.59869910E+00 -1.51973982E+01
  7.59869910E+00  7.59869910E+00 -1.51973982E+01  7.59869910E+00  7.59869910E+00
 -1.51973982E+01  7.59869910E+00  7.59869910E+00 -1.51973982E+01  7.59869910E+00
  7.59869910E+00 -1.51973982E+01  7.59869910E+00  7.59869910E+00 -1.51973982E+01
  7.59869910E+00  7.59869910E+00 -1.51973982E+01  7.59869910E+00  7.59869910E+00
 -1.51973982E+01  7.59869910E+00  7.59869910E+00 -1.51973982E+01  7.59869910E+00
  7.59869910E+00 -1.51973982E+01  7.59869910E+00  7.59869910E+00 -1.51973982E+01
  7.59869910E+00  7.59869910E+00 -1.51973982E+01  7.59869910E+00  7.59869910E+00
 -1.51973982E+01  7.59869910E+00  7.59869910E+00 -1.51973982E+01  7.59869910E+00
  7.59869910E+00 -1.51973982E+01  7.59869910E+00  7.59869910E+00 -1.51973982E+01
  7.59869910E+00  7.59869910E+00 -1.51973982E+01  7.59869910E+00  7.59869910E+00
 -1.51973982E+01  7.59869910E+00  7.59869910E+00 -1.51973982E+01  7.59869910E+00
  7.59869910E+00 -1.51973982E+01  7.59869910E+00  7.59869910E+00 -1.51973982E+01
  7.59869910E+00  7.59869910E+00 -1.51973982E+01  7.59869910E+00  7.59869910E+00
 -1.51973982E+01  7.59869910E+00  7.59869910E+00 -1.51973982E+01  7.59869910E+00
  7.59869910E+00 -1.51973982E+01  7.59869910E+00  7.59869910E+00 -1.51973982E+01
  7.59869910E+00  7.59869910E+00 -1.51973982E+01  7.59869910E+00  7.59869910E+00
 -1.51973982E+01  7.59869910E+00  7.59869910E+00 -1.51973982E+01  7.59869910E+00
  7.59869910E+00 -1.51973982E+01  7.59869910E+00  7.59869910E+00 -1.51973982E+01
  7.59869910E+00  7.59869910E+00 -1.51973982E+01  7.59869910E+00  7.59869910E+00
 -1.51973982E+01  7.59869910E+00  7.59869910E+00 -1.51973982E+01  7.59869910E+00
  7.59869910E+00 -1.51973982E+01  7.59869910E+00  7.59869910E+00 -1.51973982E+01
  7.59869910E+00  7.59869910E+00 -1.51973982E+01  7.59869910E+00  7.59869910E+00
 -1.51973982E+01  7.59869910E+00  7.59869910E+00 -1.51973982E+01  7.59869910E+00
  7.59869910E+00 -1.51973982E+01  7.59869910E+00  7.59869910E+00 -1.51973982E+01
  7.59869910E+00  7.59869910E+00 -1.51973982E+01  7.59869910E+00  7.59869910E+00
 -1.51973982E+01  7.59869910E+00  7.59869910E+00 -1.51973982E+01  7.59869910E+00
  7.59869910E+00 -1.51973982E+01  7.59869910E+00  7.59869910E+00 -1.51973982E+01
  7.59869910E+00  7.59869910E+00 -1.51973982E+01  7.59869910E+00  7.59869910E+00
 -1.51973982E+01  7.59869910E+00  7.59869910E+00 -1.51973982E+01  7.59869910E+00
  7.59869910E+00 -1.51973982E+01  7.59869910E+00  7.59869910E+00 -1.51973982E+01
  7.59869910E+00  7.59869910E+00 -1.51973982E+01  7.59869910E+00  7.59869910E+00
 -1.51973982E+01  7.59869910E+00  7.59869910E+00 -1.51973982E+01  7.59869910E+00
  7.59869910E+00 -1.51973982E+01  7.59869910E+00  7.59869910E+00 -1.51973982E+01
  7.59869910E+00  7.59869910E+00 -1.51973982E+01  7.59869910E+00  7.59869910E+00
 -1.51973982E+01  7.59869910E+00  7.59869910E+00 -1.51973982E+01  7.59869910E+00
  7.59869910E+00 -1.51973982E+01  7.59869910E+00  7.59869910E+00 -1.51973982E+01
  7.59869910E+00  7.59869910E+00 -1.51973982E+01  7.59869910E+00  7.59869910E+00
 -1.51973982E+01  7.59869910E+00  7.59869910E+00 -1.51973982E+01  7.59869910E+00
  7.59869910E+00 -1.51973982E+01  7.59869910E+00  7.59869910E+00 -1.51973982E+01
  7.59869910E+00  7.59869910E+00 -1.51973982E+01  7.59869910E+00  7.59869910E+00
 -1.51973982E+01  7.59869910E+00  7.59869910E+00 -1.51973982E+01  7.59869910E+00
  7.59869910E+00 -1.51973982E+01  7.59869910E+00  7.59869910E+00 -1.51973982E+01
  7.59869910E+00  7.59869910E+00 -1.51973982E+01  7.59869910E+00  7.59869910E+00
 -1.51973982E+01  7.59869910E+00  7.59869910E+00 -1.51973982E+01  7.59869910E+00
  7.59869910E+00 -1.51973982E+01  7.59869910E+00  7.59869910E+00 -1.51973982E+01
  7.59869910E+00  7.59869910E+00 -1.51973982E+01  7.59869910E+00  7.59869910E+00
 -1.51973982E+01  7.59869910E+00  7.59869910E+00 -1.51973982E+01  7.59869910E+00
  7.59869910E+00 -1.51973982E+01  7.59869910E+00  7.59869910E+00 -1.51973982E+01
  7.59869910E+00  7.59869910E+00 -1.51973982E+01  7.59869910E+00  7.59869910E+00
 -1.51973982E+01  7.59869910E+00  7.59869910E+00 -1.51973982E+01  7.59869910E+00
  7.59869910E+00 -1.51973982E+01  7.59869910E+00  7.59869910E+00 -1.51973982E+01
  7.59869910E+00  7.59869910E+00 -1.51973982E+01  7.59869910E+00  7.59869910E+00
 -1.51973982E+01  7.59869910E+00  7.59869910E+00 -1.51973982E+01  7.59869910E+00
  7.59869910E+00 -1.51973982E+01  7.59869910E+00  7.59869910E+00 -1.51973982E+01
  7.59869910E+00  7.59869910E+00 -1.51973982E+01  7.59869910E+00  7.59869910E+00
 -1.51973982E+01  7.59869910E+00  7.59869910E+00 -1.51973982E+01  7.59869910E+00
  7.59869910E+00 -1.51973982E+01  7.59869910E+00  7.59869910E+00 -1.51973982E+01
  7.59869910E+00  7.59869910E+00 -1.51973982E+01  7.59869910E+00  7.59869910E+00
 -1.51973982E+01  7.59869910E+00  7.59869910E+00 -1.51973982E+01  7.59869910E+00
  7.59869910E+00 -1.51973982E+01  7.59869910E+00  7.59869910E+00 -1.51973982E+01
  7.59869910E+00  7.59869910E+00 -1.51973982E+01  7.59869910E+00  7.59869910E+00
 -1.51973982E+01  7.59869910E+00  7.59869910E+00 -1.51973982E+01  7.59869910E+00
  7.59869910E+00 -1.51973982E+01  7.59869910E+00  7.59869910E+00 -1.51973982E+01
  7.59869910E+00  7.59869910E+00 -1.51973982E+01  7.59869910E+00  7.59869910E+00
 -1.51973982E+01  7.59869910E+00  7.59869910E+00 -1.51973982E+01  7.59869910E+00
  7.59869910E+00 -1.51973982E+01  7.59869910E+00  7.59869910E+00 -1.51973982E+01
  7.59869910E+00  7.59869910E+00 -1.51973982E+01  7.59869910E+00  7.59869910E+00
 -1.51973982E+01  7.59869910E+00  7.59869910E+00 -1.51973982E+01  7.59869910E+00
  7.59869910E+00 -1.51973982E+01  7.59869910E+00  7.59869910E+00 -1.51973982E+01
  7.59869910E+00  7.59869910E+00 -1.51973982E+01  7.59869910E+00  7.59869910E+00
 -1.51973982E+01  7.59869910E+00  7.59869910E+00 -1.51973982E+01  7.59869910E+00
  7.59869910E+00 -1.51973982E+01  7.59869910E+00  7.59869910E+00 -1.51973982E+01
  7.59869910E+00  7.59869910E+00 -1.51973982E+01  7.59869910E+00  7.59869910E+00
 -1.51973982E+01  7.59869910E+00  7.59869910E+00 -1.51973982E+01  7.59869910E+00
  7.59869910E+00 -1.51973982E+01  7.59869910E+00  7.59869910E+00 -1.51973982E+01
  7.59869910E+00  7.59869910E+00 -1.51973982E+01  7.59869910E+00  7.59869910E+00
 -1.51973982E+01  7.59869910E+00  7.59869910E+00 -1.51973982E+01  7.59869910E+00
  7.59869910E+00 -1.51973982E+01  7.59869910E+00  7.59869910E+00 -1.51973982E+01
  7.59869910E+00  7.59869910E+00 -1.51973982E+01  7.59869910E+00  7.59869910E+00
 -1.51973982E+01  7.59869910E+00  7.59869910E+00 -1.51973982E+01  7.59869910E+00
  7.59869910E+00 -1.51973982E+01  7.59869910E+00  7.59869910E+00 -1.51973982E+01
  7.59869910E+00  7.59869910E+00 -1.51973982E+01  7.59869910E+00  7.59869910E+00
 -1.51973982E+01  7.59869910E+00  7.59869910E+00 -1.51973982E+01  7.59869910E+00
  7.59869910E+00 -1.51973982E+01  7.59869910E+00  7.59869910E+00 -1.51973982E+01
  7.59869910E+00  7.59869910E+00 -1.51973982E+01  7.59869910E+00  7.59869910E+00
 -1.51973982E+01  7.59869910E+00  7.59869910E+00 -1.51973982E+01  7.59869910E+00
  7.59869910E+00 -1.51973982E+01  7.59869910E+00  7.59869910E+00 -1.51973982E+01
  7.59869910E+00  7.59869910E+00 -1.51973982E+01  7.59869910E+00  7.59869910E+00
 -1.51973982E+01  7.59869910E+00  7.59869910E+00 -1.51973982E+01  7.59869910E+00
  7.59869910E+00 -1.51973982E+01  7.59869910E+00  7.59869910E+00 -1.51973982E+01
  7.59869910E+00  7.59869910E+00 -1.51973982E+01  7.59869910E+00  7.59869910E+00
 -1.51973982E+01  7.59869910E+00  7.59869910E+00 -1.51973982E+01  7.59869910E+00
  7.59869910E+00 -1.51973982E+01  7.59869910E+00  7.59869910E+00 -1.51973982E+01
  7.59869910E+00  7.59869910E+00 -1.51973982E+01  7.59869910E+00  7.59869910E+00
 -1.51973982E+01  7.59869910E+00  7.59869910E+00 -1.51973982E+01  7.59869910E+00
  7.59869910E+00 -1.51973982E+01  7.59869910E+00  7.59869910E+00 -1.51973982E+01
  7.59869910E+00  7.59869910E+00 -1.51973982E+01  7.59869910E+00  7.59869910E+00
 -1.51973982E+01  7.59869910E+00  7.59869910E+00 -1.51973982E+01  7.59869910E+00
  7.59869910E+00 -1.51973982E+01  7.59869910E+00  7.59869910E+00 -1.51973982E+01
  7.59869910E+00  7.59869910E+00 -1.51973982E+01  7.59869910E+00  7.59869910E+00
 -1.51973982E+01  7.59869910E+00  7.59869910E+00 -1.51973982E+01  7.59869910E+00
  7.59869910E+00 -1.51973982E+01  7.59869910E+00  7.59869910E+00 -1.51973982E+01
  7.59869910E+00  7.59869910E+00 -1.51973982E+01  7.59869910E+00  7.59869910E+00
 -1.51973982E+01  7.59869910E+00  7.59869910E+00 -1.51973982E+01  7.59869910E+00
  7.59869910E+00 -1.51973982E+01  7.59869910E+00  7.59869910E+00 -1.51973982E+01
  7.59869910E+00  7.59869910E+00 -1.51973982E+01  7.59869910E+00  7.59869910E+00
 -1.51973982E+01  7.59869910E+00  7.59869910E+00 -1.51973982E+01  7.59869910E+00
  7.59869910E+00 -1.51973982E+01  7.59869910E+00  7.59869910E+00 -1.51973982E+01
  7.59869910E+00  7.59869910E+00 -1.51973982E+01  7.59869910E+00  7.59869910E+00
 -1.51973982E+01  7.59869910E+00  7.59869910E+00 -1.51973982E+01  7.59869910E+00
  7.59869910E+00 -1.51973982E+01  7.59869910E+00  7.59869910E+00 -1.51973982E+01
  7.59869910E+00  7.59869910E+00 -1.51973982E+01  7.59869910E+00  7.59869910E+00
 -1.51973982E+01  7.59869910E+00  7.59869910E+00 -1.51973982E+01  7.59869910E+00
  7.59869910E+00 -1.51973982E+01  7.59869910E+00  7.59869910E+00 -1.51973982E+01
  7.59869910E+00  7.59869910E+00 -1.51973982E+01  7.59869910E+00  7.59869910E+00
 -1.51973982E+01  7.59869910E+00  7.59869910E+00 -1.51973982E+01  7.59869910E+00
  7.59869910E+00 -1.51973982E+01  7.59869910E+00  7.59869910E+00 -1.51973982E+01
  7.59869910E+00  7.59869910E+00 -1.51973982E+01  7.59869910E+00  7.59869910E+00
 -1.51973982E+01  7.59869910E+00  7.59869910E+00 -1.51973982E+01  7.59869910E+00
  7.59869910E+00 -1.51973982E+01  7.59869910E+00  7.59869910E+00 -1.51973982E+01
  7.59869910E+00  7.59869910E+00 -1.51973982E+01  7.59869910E+00  7.59869910E+00
 -1.51973982E+01  7.59869910E+00  7.59869910E+00 -1.51973982E+01  7.59869910E+00
  7.59869910E+00 -1.51973982E+01  7.59869910E+00  7.59869910E+00 -1.51973982E+01
  7.59869910E+00  7.59869910E+00 -1.51973982E+01  7.59869910E+00  7.59869910E+00
 -1.51973982E+01  7.59869910E+00  7.59869910E+00 -1.51973982E+01  7.59869910E+00
  7.59869910E+00 -1.51973982E+01  7.59869910E+00  7.59869910E+00 -1.51973982E+01
  7.59869910E+00  7.59869910E+00 -1.51973982E+01  7.59869910E+00  7.59869910E+00
 -1.51973982E+01  7.59869910E+00  7.59869910E+00 -1.51973982E+01  7.59869910E+00
  7.59869910E+00 -1.51973982E+01  7.59869910E+00  7.59869910E+00 -1.51973982E+01
  7.59869910E+00  7.59869910E+00 -1.51973982E+01  7.59869910E+00  7.59869910E+00
 -1.51973982E+01  7.59869910E+00  7.59869910E+00 -1.51973982E+01  7.59869910E+00
  7.59869910E+00 -1.51973982E+01  7.59869910E+00  7.59869910E+00 -1.51973982E+01
  7.59869910E+00  7.59869910E+00 -1.51973982E+01  7.59869910E+00  7.59869910E+00
 -1.51973982E+01  7.59869910E+00  7.59869910E+00 -1.51973982E+01  7.59869910E+00
  7.59869910E+00 -1.51973982E+01  7.59869910E+00  7.59869910E+00 -1.51973982E+01
  7.59869910E+00  7.59869910E+00 -1.51973982E+01  7.59869910E+00  7.59869910E+00
 -1.51973982E+01  7.59869910E+00  7.59869910E+00 -1.51973982E+01  7.59869910E+00
  7.59869910E+00 -1.51973982E+01  7.59869910E+00  7.59869910E+00 -1.51973982E+01
  7.59869910E+00  7.59869910E+00 -1.51973982E+01  7.59869910E+00  7.59869910E+00
 -1.51973982E+01  7.59869910E+00  7.59869910E+00 -1.51973982E+01  7.59869910E+00
  7.59869910E+00 -1.51973982E+01  7.59869910E+00  7.59869910E+00 -1.51973982E+01
  7.59869910E+00  7.59869910E+00 -1.51973982E+01  7.59869910E+00  7.59869910E+00
 -1.51973982E+01  7.59869910E+00  7.59869910E+00 -1.51973982E+01  7.59869910E+00
  7.59869910E+00 -1.51973982E+01  7.59869910E+00  7.59869910E+00 -1.51973982E+01
  7.59869910E+00  7.59869910E+00 -1.51973982E+01  7.59869910E+00  7.59869910E+00
 -1.51973982E+01  7.59869910E+00  7.59869910E+00 -1.51973982E+01  7.59869910E+00
  7.59869910E+00 -1.51973982E+01  7.59869910E+00  7.59869910E+00 -1.51973982E+01
  7.59869910E+00  7.59869910E+00 -1.51973982E+01  7.59869910E+00  7.59869910E+00
 -1.51973982E+01  7.59869910E+00  7.59869910E+00 -1.51973982E+01  7.59869910E+00
  7.59869910E+00 -1.51973982E+01  7.59869910E+00  7.59869910E+00 -1.51973982E+01
  7.59869910E+00  7.59869910E+00 -1.51973982E+01  7.59869910E+00  7.59869910E+00
 -1.51973982E+01  7.59869910E+00  7.59869910E+00 -1.51973982E+01  7.59869910E+00
  7.59869910E+00 -1.51973982E+01  7.59869910E+00  7.59869910E+00 -1.51973982E+01
  7.59869910E+00  7.59869910E+00 -1.51973982E+01  7.59869910E+00  7.59869910E+00
 -1.51973982E+01  7.59869910E+00  7.59869910E+00 -1.51973982E+01  7.59869910E+00
  7.59869910E+00 -1.51973982E+01  7.59869910E+00  7.59869910E+00 -1.51973982E+01
  7.59869910E+00  7.59869910E+00 -1.51973982E+01  7.59869910E+00  7.59869910E+00
 -1.51973982E+01  7.59869910E+00  7.59869910E+00 -1.51973982E+01  7.59869910E+00
  7.59869910E+00 -1.51973982E+01  7.59869910E+00  7.59869910E+00 -1.51973982E+01
  7.59869910E+00  7.59869910E+00 -1.51973982E+01  7.59869910E+00  7.59869910E+00
 -1.51973982E+01  7.59869910E+00  7.59869910E+00 -1.51973982E+01  7.59869910E+00
  7.59869910E+00 -1.51973982E+01  7.59869910E+00  7.59869910E+00 -1.51973982E+01
  7.59869910E+00  7.59869910E+00 -1.51973982E+01  7.59869910E+00  7.59869910E+00
 -1.51973982E+01  7.59869910E+00  7.59869910E+00 -1.51973982E+01  7.59869910E+00
  7.59869910E+00 -1.51973982E+01  7.59869910E+00  7.59869910E+00 -1.51973982E+01
  7.59869910E+00  7.59869910E+00 -1.51973982E+01  7.59869910E+00  7.59869910E+00
 -1.51973982E+01  7.59869910E+00  7.59869910E+00 -1.51973982E+01  7.59869910E+00
  7.59869910E+00 -1.51973982E+01  7.59869910E+00  7.59869910E+00 -1.51973982E+01
  7.59869910E+00  7.59869910E+00 -1.51973982E+01  7.59869910E+00  7.59869910E+00
 -1.51973982E+01  7.59869910E+00  7.59869910E+00 -1.51973982E+01  7.59869910E+00
  7.59869910E+00 -1.51973982E+01  7.59869910E+00  7.59869910E+00 -1.51973982E+01
  7.59869910E+00  7.59869910E+00 -1.51973982E+01  7.59869910E+00  7.59869910E+00
 -1.51973982E+01  7.59869910E+00  7.59869910E+00 -1.51973982E+01  7.59869910E+00
  7.59869910E+00 -1.51973982E+01  7.59869910E+00  7.59869910E+00 -1.51973982E+01
  7.59869910E+00  7.59869910E+00 -1.51973982E+01  7.59869910E+00  7.59869910E+00
 -1.51973982E+01  7.59869910E+00  7.59869910E+00 -1.51973982E+01  7.59869910E+00
  7.59869910E+00 -1.51973982E+01  7.59869910E+00  7.59869910E+00 -1.51973982E+01
  7.59869910E+00  7.59869910E+00 -1.51973982E+01  7.59869910E+00  7.59869910E+00
 -1.51973982E+01  7.59869910E+00  7.59869910E+00 -1.51973982E+01  7.59869910E+00
  7.59869910E+00 -1.51973982E+01  7.59869910E+00  7.59869910E+00 -1.51973982E+01
  7.59869910E+00  7.59869910E+00 -1.51973982E+01  7.59869910E+00  7.59869910E+00
 -1.51973982E+01  7.59869910E+00  7.59869910E+00 -1.51973982E+01  7.59869910E+00
  7.59869910E+00 -1.51973982E+01  7.59869910E+00  7.59869910E+00 -1.51973982E+01
  7.59869910E+00  7.59869910E+00 -1.51973982E+01  7.59869910E+00  7.59869910E+00
 -1.51973982E+01  7.59869910E+00  7.59869910E+00 -1.51973982E+01  7.59869910E+00
  7.59869910E+00 -1.51973982E+01  7.59869910E+00  7.59869910E+00 -1.51973982E+01
  7.59869910E+00  7.59869910E+00 -1.51973982E+01  7.59869910E+00  7.59869910E+00
 -1.51973982E+01  7.59869910E+00  7.59869910E+00 -1.51973982E+01  7.59869910E+00
  7.59869910E+00 -1.51973982E+01  7.59869910E+00  7.59869910E+00 -1.51973982E+01
  7.59869910E+00  7.59869910E+00 -1.51973982E+01  7.59869910E+00  7.59869910E+00
 -1.51973982E+01  7.59869910E+00  7.59869910E+00 -1.51973982E+01  7.59869910E+00
  7.59869910E+00 -1.51973982E+01  7.59869910E+00  7.59869910E+00 -1.51973982E+01
  7.59869910E+00  7.59869910E+00 -1.51973982E+01  7.59869910E+00  7.59869910E+00
 -1.51973982E+01  7.59869910E+00  7.59869910E+00 -1.51973982E+01  7.59869910E+00
  7.59869910E+00 -1.51973982E+01  7.59869910E+00  7.59869910E+00 -1.51973982E+01
  7.59869910E+00  7.59869910E+00 -1.51973982E+01  7.59869910E+00  7.59869910E+00
 -1.51973982E+01  7.59869910E+00  7.59869910E+00 -1.51973982E+01  7.59869910E+00
  7.59869910E+00 -1.51973982E+01  7.59869910E+00  7.59869910E+00 -1.51973982E+01
  7.59869910E+00  7.59869910E+00 -1.51973982E+01  7.59869910E+00  7.59869910E+00
 -1.51973982E+01  7.59869910E+00  7.59869910E+00 -1.51973982E+01  7.59869910E+00
  7.59869910E+00 -1.51973982E+01  7.59869910E+00  7.59869910E+00 -1.51973982E+01
  7.59869910E+00  7.59869910E+00 -1.51973982E+01  7.59869910E+00  7.59869910E+00
 -1.51973982E+01  7.59869910E+00  7.59869910E+00 -1.51973982E+01  7.59869910E+00
  7.59869910E+00 -1.51973982E+01  7.59869910E+00  7.59869910E+00 -1.51973982E+01
  7.59869910E+00  7.59869910E+00 -1.51973982E+01  7.59869910E+00  7.59869910E+00
 -1.51973982E+01  7.59869910E+00  7.59869910E+00 -1.51973982E+01  7.59869910E+00
  7.59869910E+00 -1.51973982E+01  7.59869910E+00  7.59869910E+00 -1.51973982E+01
  7.59869910E+00  7.59869910E+00 -1.51973982E+01  7.59869910E+00  7.59869910E+00
 -1.51973982E+01  7.59869910E+00  7.59869910E+00 -1.51973982E+01  7.59869910E+00
  7.59869910E+00 -1.51973982E+01  7.59869910E+00  7.59869910E+00 -1.51973982E+01
  7.59869910E+00  7.59869910E+00 -1.51973982E+01  7.59869910E+00  7.59869910E+00
 -1.51973982E+01  7.59869910E+00  7.59869910E+00 -1.51973982E+01  7.59869910E+00
  7.59869910E+00 -1.51973982E+01  7.59869910E+00  7.59869910E+00 -1.51973982E+01
  7.59869910E+00  7.59869910E+00 -1.51973982E+01  7.59869910E+00  7.59869910E+00
 -1.51973982E+01  7.59869910E+00  7.59869910E+00 -1.51973982E+01  7.59869910E+00
  7.59869910E+00 -1.51973982E+01  7.59869910E+00  7.59869910E+00 -1.51973982E+01
  7.59869910E+00  7.59869910E+00 -1.51973982E+01  7.59869910E+00  7.59869910E+00
 -1.51973982E+01  7.59869910E+00  7.59869910E+00 -1.51973982E+01  7.59869910E+00
  7.59869910E+00 -1.51973982E+01  7.59869910E+00  7.59869910E+00 -1.51973982E+01
  7.59869910E+00  7.59869910E+00 -1.51973982E+01  7.59869910E+00  7.59869910E+00
 -1.51973982E+01  7.59869910E+00  7.59869910E+00 -1.51973982E+01  7.59869910E+00
  7.59869910E+00 -1.51973982E+01  7.59869910E+00  7.59869910E+00 -1.51973982E+01
  7.59869910E+00  7.59869910E+00 -1.51973982E+01  7.59869910E+00  7.59869910E+00
 -1.51973982E+01  7.59869910E+00  7.59869910E+00 -1.51973982E+01  7.59869910E+00
  7.59869910E+00 -1.51973982E+01  7.59869910E+00  7.59869910E+00 -1.51973982E+01
  7.59869910E+00  7.59869910E+00 -1.51973982E+01  7.59869910E+00  7.59869910E+00
 -1.51973982E+01  7.59869910E+00  7.59869910E+00 -1.51973982E+01  7.59869910E+00
  7.59869910E+00 -1.51973982E+01  7.59869910E+00  7.59869910E+00 -1.51973982E+01
  7.59869910E+00  7.59869910E+00 -1.51973982E+01  7.59869910E+00  7.59869910E+00
 -1.51973982E+01  7.59869910E+00  7.59869910E+00 -1.51973982E+01  7.59869910E+00
  7.59869910E+00 -1.51973982E+01  7.59869910E+00  7.59869910E+00 -1.51973982E+01
  7.59869910E+00  7.59869910E+00 -1.51973982E+01  7.59869910E+00  7.59869910E+00
 -1.51973982E+01  7.59869910E+00  7.59869910E+00 -1.51973982E+01  7.59869910E+00
  7.59869910E+00 -1.51973982E+01  7.59869910E+00  7.59869910E+00 -1.51973982E+01
  7.59869910E+00  7.59869910E+00 -1.51973982E+01  7.59869910E+00  7.59869910E+00
 -1.51973982E+01  7.59869910E+00  7.59869910E+00 -1.51973982E+01  7.59869910E+00
  7.59869910E+00 -1.51973982E+01  7.59869910E+00  7.59869910E+00 -1.51973982E+01
  7.59869910E+00  7.59869910E+00 -1.51973982E+01  7.59869910E+00  7.59869910E+00
 -1.51973982E+01  7.59869910E+00  7.59869910E+00 -1.51973982E+01  7.59869910E+00
  7.59869910E+00 -1.51973982E+01  7.59869910E+00  7.59869910E+00 -1.51973982E+01
  7.59869910E+00  7.59869910E+00 -1.51973982E+01  7.59869910E+00  7.59869910E+00
 -1.51973982E+01  7.59869910E+00  7.59869910E+00 -1.51973982E+01  7.59869910E+00
  7.59869910E+00 -1.51973982E+01  7.59869910E+00  7.59869910E+00 -1.51973982E+01
  7.59869910E+00  7.59869910E+00 -1.51973982E+01  7.59869910E+00  7.59869910E+00
 -1.51973982E+01  7.59869910E+00  7.59869910E+00 -1.51973982E+01  7.59869910E+00
  7.59869910E+00 -1.51973982E+01  7.59869910E+00  7.59869910E+00 -1.51973982E+01
  7.59869910E+00  7.59869910E+00 -1.51973982E+01  7.59869910E+00  7.59869910E+00
 -1.51973982E+01  7.59869910E+00  7.59869910E+00 -1.51973982E+01  7.59869910E+00
  7.59869910E+00 -1.51973982E+01  7.59869910E+00  7.59869910E+00 -1.51973982E+01
  7.59869910E+00  7.59869910E+00 -1.51973982E+01  7.59869910E+00  7.59869910E+00
 -1.51973982E+01  7.59869910E+00  7.59869910E+00 -1.51973982E+01  7.59869910E+00
  7.59869910E+00 -1.51973982E+01  7.59869910E+00  7.59869910E+00 -1.51973982E+01
  7.59869910E+00  7.59869910E+00 -1.51973982E+01  7.59869910E+00  7.59869910E+00
 -1.51973982E+01  7.59869910E+00  7.59869910E+00 -1.51973982E+01  7.59869910E+00
  7.59869910E+00 -1.51973982E+01  7.59869910E+00  7.59869910E+00 -1.51973982E+01
  7.59869910E+00  7.59869910E+00 -1.51973982E+01  7.59869910E+00  7.59869910E+00
 -1.51973982E+01  7.59869910E+00  7.59869910E+00 -1.51973982E+01  7.59869910E+00
  7.59869910E+00 -1.51973982E+01  7.59869910E+00  7.59869910E+00 -1.51973982E+01
  7.59869910E+00  7.59869910E+00 -1.51973982E+01  7.59869910E+00  7.59869910E+00
 -1.51973982E+01  7.59869910E+00  7.59869910E+00 -1.51973982E+01  7.59869910E+00
  7.59869910E+00 -1.51973982E+01  7.59869910E+00  7.59869910E+00 -1.51973982E+01
  7.59869910E+00  7.59869910E+00 -1.51973982E+01  7.59869910E+00  7.59869910E+00
 -1.51973982E+01  7.59869910E+00  7.59869910E+00 -1.51973982E+01  7.59869910E+00
  7.59869910E+00 -1.51973982E+01  7.59869910E+00  7.59869910E+00 -1.51973982E+01
  7.59869910E+00  7.59869910E+00 -1.51973982E+01  7.59869910E+00  7.59869910E+00
 -1.51973982E+01  7.59869910E+00  7.59869910E+00 -1.51973982E+01  7.59869910E+00
  7.59869910E+00 -1.51973982E+01  7.59869910E+00  7.59869910E+00 -1.51973982E+01
  7.59869910E+00  7.59869910E+00 -1.51973982E+01  7.59869910E+00  7.59869910E+00
 -1.51973982E+01  7.59869910E+00  7.59869910E+00 -1.51973982E+01  7.59869910E+00
  7.59869910E+00 -1.51973982E+01  7.59869910E+00  7.59869910E+00 -1.51973982E+01
  7.59869910E+00  7.59869910E+00 -1.51973982E+01  7.59869910E+00  7.59869910E+00
 -1.51973982E+01  7.59869910E+00  7.59869910E+00 -1.51973982E+01  7.59869910E+00
  7.59869910E+00 -1.51973982E+01  7.59869910E+00  7.59869910E+00 -1.51973982E+01
  7.59869910E+00  7.59869910E+00 -1.51973982E+01  7.59869910E+00  7.59869910E+00
 -1.51973982E+01  7.59869910E+00  7.59869910E+00 -1.51973982E+01  7.59869910E+00
  7.59869910E+00 -1.51973982E+01  7.59869910E+00  7.59869910E+00 -1.51973982E+01
  7.59869910E+00  7.59869910E+00 -1.51973982E+01  7.59869910E+00  7.59869910E+00
 -1.51973982E+01  7.59869910E+00  7.59869910E+00 -1.51973982E+01  7.59869910E+00
  7.59869910E+00 -1.51973982E+01  7.59869910E+00  7.59869910E+00 -1.51973982E+01
  7.59869910E+00  7.59869910E+00 -1.51973982E+01  7.59869910E+00  7.59869910E+00
 -1.51973982E+01  7.59869910E+00  7.59869910E+00 -1.51973982E+01  7.59869910E+00
  7.59869910E+00 -1.51973982E+01  7.59869910E+00  7.59869910E+00 -1.51973982E+01
  7.59869910E+00  7.59869910E+00 -1.51973982E+01  7.59869910E+00  7.59869910E+00
 -1.51973982E+01  7.59869910E+00  7.59869910E+00 -1.51973982E+01  7.59869910E+00
  7.59869910E+00 -1.51973982E+01  7.59869910E+00  7.59869910E+00 -1.51973982E+01
  7.59869910E+00  7.59869910E+00 -1.51973982E+01  7.59869910E+00  7.59869910E+00
 -1.51973982E+01  7.59869910E+00  7.59869910E+00 -1.51973982E+01  7.59869910E+00
  7.59869910E+00 -1.51973982E+01  7.59869910E+00  7.59869910E+00 -1.51973982E+01
  7.59869910E+00  7.59869910E+00 -1.51973982E+01  7.59869910E+00  7.59869910E+00
 -1.51973982E+01  7.59869910E+00  7.59869910E+00 -1.51973982E+01  7.59869910E+00
  7.59869910E+00 -1.51973982E+01  7.59869910E+00  7.59869910E+00 -1.51973982E+01
  7.59869910E+00  7.59869910E+00 -1.51973982E+01  7.59869910E+00  7.59869910E+00
 -1.51973982E+01  7.59869910E+00  7.59869910E+00 -1.51973982E+01  7.59869910E+00
  7.59869910E+00 -1.51973982E+01  7.59869910E+00  7.59869910E+00 -1.51973982E+01
  7.59869910E+00  7.59869910E+00 -1.51973982E+01  7.59869910E+00  7.59869910E+00
 -1.51973982E+01  7.59869910E+00  7.59869910E+00 -1.51973982E+01  7.59869910E+00
  7.59869910E+00 -1.51973982E+01  7.59869910E+00  7.59869910E+00 -1.51973982E+01
  7.59869910E+00  7.59869910E+00 -1.51973982E+01  7.59869910E+00  7.59869910E+00
 -1.51973982E+01  7.59869910E+00  7.59869910E+00 -1.51973982E+01  7.59869910E+00
  7.59869910E+00 -1.51973982E+01  7.59869910E+00  7.59869910E+00 -1.51973982E+01
  7.59869910E+00  7.59869910E+00 -1.51973982E+01  7.59869910E+00  7.59869910E+00
 -1.51973982E+01  7.59869910E+00  7.59869910E+00 -1.51973982E+01  7.59869910E+00
  7.59869910E+00 -1.51973982E+01  7.59869910E+00  7.59869910E+00 -1.51973982E+01
  7.59869910E+00  7.59869910E+00 -1.51973982E+01  7.59869910E+00  7.59869910E+00
 -1.51973982E+01  7.59869910E+00  7.59869910E+00 -1.51973982E+01  7.59869910E+00
  7.59869910E+00 -1.51973982E+01  7.59869910E+00  7.59869910E+00 -1.51973982E+01
  7.59869910E+00  7.59869910E+00 -1.51973982E+01  7.59869910E+00  7.59869910E+00
 -1.51973982E+01  7.59869910E+00  7.59869910E+00 -1.51973982E+01  7.59869910E+00
  7.59869910E+00 -1.51973982E+01  7.59869910E+00  7.59869910E+00 -1.51973982E+01
  7.59869910E+00  7.59869910E+00 -1.51973982E+01  7.59869910E+00  7.59869910E+00
 -1.51973982E+01  7.59869910E+00  7.59869910E+00 -1.51973982E+01  7.59869910E+00
  7.59869910E+00 -1.51973982E+01  7.59869910E+00  7.59869910E+00 -1.51973982E+01
  7.59869910E+00  7.59869910E+00 -1.51973982E+01  7.59869910E+00  7.59869910E+00
 -1.51973982E+01  7.59869910E+00  7.59869910E+00 -1.51973982E+01  7.59869910E+00
  7.59869910E+00 -1.51973982E+01  7.59869910E+00  7.59869910E+00 -1.51973982E+01
  7.59869910E+00  7.59869910E+00 -1.51973982E+01  7.59869910E+00  7.59869910E+00
 -1.51973982E+01  7.59869910E+00  7.59869910E+00 -1.51973982E+01  7.59869910E+00
  7.59869910E+00 -1.51973982E+01  7.59869910E+00  7.59869910E+00 -1.51973982E+01
  7.59869910E+00  7.59869910E+00 -1.51973982E+01  7.59869910E+00  7.59869910E+00
 -1.51973982E+01  7.59869910E+00  7.59869910E+00 -1.51973982E+01  7.59869910E+00
  7.59869910E+00 -1.51973982E+01  7.59869910E+00  7.59869910E+00 -1.51973982E+01
  7.59869910E+00  7.59869910E+00 -1.51973982E+01  7.59869910E+00  7.59869910E+00
 -1.51973982E+01  7.59869910E+00  7.59869910E+00 -1.51973982E+01  7.59869910E+00
  7.59869910E+00 -1.51973982E+01  7.59869910E+00  7.59869910E+00 -1.51973982E+01
  7.59869910E+00  7.59869910E+00 -1.51973982E+01  7.59869910E+00  7.59869910E+00
 -1.51973982E+01  7.59869910E+00  7.59869910E+00 -1.51973982E+01  7.59869910E+00
  7.59869910E+00 -1.51973982E+01  7.59869910E+00  7.59869910E+00 -1.51973982E+01
  7.59869910E+00  7.59869910E+00 -1.51973982E+01  7.59869910E+00  7.59869910E+00
 -1.51973982E+01  7.59869910E+00  7.59869910E+00 -1.51973982E+01  7.59869910E+00
  7.59869910E+00 -1.51973982E+01  7.59869910E+00  7.59869910E+00 -1.51973982E+01
  7.59869910E+00  7.59869910E+00 -1.51973982E+01  7.59869910E+00  7.59869910E+00
 -1.51973982E+01  7.59869910E+00  7.59869910E+00 -1.51973982E+01  7.59869910E+00
  7.59869910E+00 -1.51973982E+01  7.59869910E+00  7.59869910E+00 -1.51973982E+01
  7.59869910E+00  7.59869910E+00 -1.51973982E+01  7.59869910E+00  7.59869910E+00
 -1.51973982E+01  7.59869910E+00  7.59869910E+00 -1.51973982E+01  7.59869910E+00
  7.59869910E+00 -1.51973982E+01  7.59869910E+00  7.59869910E+00 -1.51973982E+01
  7.59869910E+00  7.59869910E+00 -1.51973982E+01  7.59869910E+00  7.59869910E+00
 -1.51973982E+01  7.59869910E+00  7.59869910E+00 -1.51973982E+01  7.59869910E+00
  7.59869910E+00 -1.51973982E+01  7.59869910E+00  7.59869910E+00 -1.51973982E+01
  7.59869910E+00  7.59869910E+00 -1.51973982E+01  7.59869910E+00  7.59869910E+00
 -1.51973982E+01  7.59869910E+00  7.59869910E+00 -1.51973982E+01  7.59869910E+00
  7.59869910E+00 -1.51973982E+01  7.59869910E+00  7.59869910E+00 -1.51973982E+01
  7.59869910E+00  7.59869910E+00 -1.51973982E+01  7.59869910E+00  7.59869910E+00
 -1.51973982E+01  7.59869910E+00  7.59869910E+00 -1.51973982E+01  7.59869910E+00
  7.59869910E+00 -1.51973982E+01  7.59869910E+00  7.59869910E+00 -1.51973982E+01
  7.59869910E+00  7.59869910E+00
%FLAG ATOMIC_NUMBER                                                             
%FORMAT(10I8)                                                                   
       6       6       6       6       6       6       6       6       6       6
       6       6       6       6       6       6       1       1       1       1
       1       1       1       1       1       1       6       1       1       8
       6       6       1       6       6       6       6       6       6       1
       7       6       6       6       6       8       6       6       8       6
       6       8       8       6       8       6       8       6       8       1
       1       1       1       1       1       1       1       1       1       1
       1       1       1       1       1       1       1       1       1       1
       1       1       1       1       8       6       6       1       6       6
       6       6       6       6       1       7       6       6       6       6
       8       6       6       8       6       6       8       8       6       8
       6       8       6       8       1       1       1       1       1       1
       1       1       1       1       1       1       1       1       1       1
       1       1       1       1       1       1       1       1       1       8
       6       6       1       6       6       6       6       6       6       1
       7       6       6       6       6       8       6       6       8       6
       6       8       8       6       8       6       8       6       8       1
       1       1       1       1       1       1       1       1       1       1
       1       1       1       1       1       1       1       1       1       1
       1       1       1       1       8       6       6       1       6       6
       6       6       6       6       1       7       6       6       6       6
       8       6       6       8       6       6       8       8       6       8
       6       8       6       8       1       1       1       1       1       1
       1       1       1       1       1       1       1       1       1       1
       1       1       1       1       1       1       1       1       1       8
       6       6       1       6       6       6       6       6       6       1
       7       6       6       6       6       8       6       6       8       6
       6       8       8       6       8       6       8       6       8       1
       1       1       1       1       1       1       1       1       1       1
       1       1       1       1       1       1       1       1       1       1
       1       1       1       1       8       6       6       1       6       6
       6       6       6       6       1       7       6       6       6       6
       8       6       6       8       6       6       8       8       6       8
       6       8       6       8       1       1       1       1       1       1
       1       1       1       1       1       1       1       1       1       1
       1       1       1       1       1       1       1       1       1       8
       6       6       1       6       6       6       6       6       6       1
       7       6       6       6       6       8       6       6       8       6
       6       8       8       6       8       6       8       6       8       1
       1       1       1       1       1       1       1       1       1       1
       1       1       1       1       1       1       1       1       1       1
       1       1       1       1       8       6       6       1       6       6
       6       6       6       6       1       7       6       6       6       6
       8       6       6       8       6       6       8       8       6       8
       6       8       6       8       1       1       1       1       1       1
       1       1       1       1       1       1       1       1       1       1
       1       1       1       1       1       1       1       1       1       8
       6       6       1       6       6       6       6       6       6       1
       7       6       6       6       6       8       6       6       8       6
       6       8       8       6       8       6       8       6       8       1
       1       1       1       1       1       1       1       1       1       1
       1       1       1       1       1       1       1       1       1       1
       1       1       1       1       8       6       6       1       6       6
       6       6       6       6       1       7       6       6       6       6
       8       6       6       8       6       6       8       8       6       8
       6       8       6       8       1       1       1       1       1       1
       1       1       1       1       1       1       1       1       1       1
       1       1       1       1       1       1       1       1       1       6
       1       1       6       1       1       8       6       6       1       6
       6       6       6       6       6       1       7       6       6       6
       6       8       6       6       8       6       6       8       8       6
       8       6       8       6       8       1       1       1       1       1
       1       1       1       1       1       1       1       1       1       1
       1       1       1       1       1       1       1       1       1       1
       8       6       6       1       6       6       6       6       6       6
       1       7       6       6       6       6       8       6       6       8
       6       6       8       8       6       8       6       8       6       8
       1       1       1       1       1       1       1       1       1       1
       1       1       1       1       1       1       1       1       1       1
       1       1       1       1       1       8       6       6       1       6
       6       6       6       6       6       1       7       6       6       6
       6       8       6       6       8       6       6       8       8       6
       8       6       8       6       8       1       1       1       1       1
       1       1       1       1       1       1       1       1       1       1
       1       1       1       1       1       1       1       1       1       1
       8       6       6       1       6       6       6       6       6       6
       1       7       6       6       6       6       8       6       6       8
       6       6       8       8       6       8       6       8       6       8
       1       1       1       1       1       1       1       1       1       1
       1       1       1       1       1       1       1       1       1       1
       1       1       1       1       1       8       6       6       1       6
       6       6       6       6       6       1       7       6       6       6
       6       8       6       6       8       6       6       8       8       6
       8       6       8       6       8       1       1       1       1       1
       1       1       1       1       1       1       1       1       1       1
       1       1       1       1       1       1       1       1       1       1
       8       6       6       1       6       6       6       6       6       6
       1       7       6       6       6       6       8       6       6       8
       6       6       8       8       6       8       6       8       6       8
       1       1       1       1       1       1       1       1       1       1
       1       1       1       1       1       1       1       1       1       1
       1       1       1       1       1       8       6       6       1       6
       6       6       6       6       6       1       7       6       6       6
       6       8       6       6       8       6       6       8       8       6
       8       6       8       6       8       1       1       1       1       1
       1       1       1       1       1       1       1       1       1       1
       1       1       1       1       1       1       1       1       1       1
       8       6       6       1       6       6       6       6       6       6
       1       7       6       6       6       6       8       6       6       8
       6       6       8       8       6       8       6       8       6       8
       1       1       1       1       1       1       1       1       1       1
       1       1       1       1       1       1       1       1       1       1
       1       1       1       1       1       8       6       6       1       6
       6       6       6       6       6       1       7       6       6       6
       6       8       6       6       8       6       6       8       8       6
       8       6       8       6       8       1       1       1       1       1
       1       1       1       1       1       1       1       1       1       1
       1       1       1       1       1       1       1       1       1       1
       8       6       6       1       6       6       6       6       6       6
       1       7       6       6       6       6       8       6       6       8
       6       6       8       8       6       8       6       8       6       8
       1       1       1       1       1       1       1       1       1       1
       1       1       1       1       1       1       1       1       1       1
       1       1       1       1       1       6       1       1       6       1
       1       8       6       6       1       6       6       6       6       6
       6       1       7       6       6       6       6       8       6       6
       8       6       6       8       8       6       8       6       8       6
       8       1       1       1       1       1       1       1       1       1
       1       1       1       1       1       1       1       1       1       1
       1       1       1       1       1       1       8       6       6       1
       6       6       6       6       6       6       1       7       6       6
       6       6       8       6       6       8       6       6       8       8
       6       8       6       8       6       8       1       1       1       1
       1       1       1       1       1       1       1       1       1       1
       1       1       1       1       1       1       1       1       1       1
       1       8       6       6       1       6       6       6       6       6
       6       1       7       6       6       6       6       8       6       6
       8       6       6       8       8       6       8       6       8       6
       8       1       1       1       1       1       1       1       1       1
       1       1       1       1       1       1       1       1       1       1
       1       1       1       1       1       1       8       6       6       1
       6       6       6       6       6       6       1       7       6       6
       6       6       8       6       6       8       6       6       8       8
       6       8       6       8       6       8       1       1       1       1
       1       1       1       1       1       1       1       1       1       1
       1       1       1       1       1       1       1       1       1       1
       1       8       6       6       1       6       6       6       6       6
       6       1       7       6       6       6       6       8       6       6
       8       6       6       8       8       6       8       6       8       6
       8       1       1       1       1       1       1       1       1       1
       1       1       1       1       1       1       1       1       1       1
       1       1       1       1       1       1       8       6       6       1
       6       6       6       6       6       6       1       7       6       6
       6       6       8       6       6       8       6       6       8       8
       6       8       6       8       6       8       1       1       1       1
       1       1       1       1       1       1       1       1       1       1
       1       1       1       1       1       1       1       1       1       1
       1       8       6       6       1       6       6       6       6       6
       6       1       7       6       6       6       6       8       6       6
       8       6       6       8       8       6       8       6       8       6
       8       1       1       1       1       1       1       1       1       1
       1       1       1       1       1       1       1       1       1       1
       1       1       1       1       1       1       8       6       6       1
       6       6       6       6       6       6       1       7       6       6
       6       6       8       6       6       8       6       6       8       8
       6       8       6       8       6       8       1       1       1       1
       1       1       1       1       1       1       1       1       1       1
       1       1       1       1       1       1       1       1       1       1
       1       8       6       6       1       6       6       6       6       6
       6       1       7       6       6       6       6       8       6       6
       8       6       6       8       8       6       8       6       8       6
       8       1       1       1       1       1       1       1       1       1
       1       1       1       1       1       1       1       1       1       1
       1       1       1       1       1       1       8       6       6       1
       6       6       6       6       6       6       1       7       6       6
       6       6       8       6       6       8       6       6       8       8
       6       8       6       8       6       8       1       1       1       1
       1       1       1       1       1       1       1       1       1       1
       1       1       1       1       1       1       1       1       1       1
       1       6       1       1       8       1       1       8       1       1
       8       1       1       8       1       1       8       1       1       8
       1       1       8       1       1       8       1       1       8       1
       1       8       1       1       8       1       1       8       1       1
       8       1       1       8       1       1       8       1       1       8
       1       1       8       1       1       8       1       1       8       1
       1       8       1       1       8       1       1       8       1       1
       8       1       1       8       1       1       8       1       1       8
       1       1       8       1       1       8       1       1       8       1
       1       8       1       1       8       1       1       8       1       1
       8       1       1       8       1       1       8       1       1       8
       1       1       8       1       1       8       1       1       8       1
       1       8       1       1       8       1       1       8       1       1
       8       1       1       8       1       1       8       1       1       8
       1       1       8       1       1       8       1       1       8       1
       1       8       1       1       8       1       1       8       1       1
       8       1       1       8       1       1       8       1       1       8
       1       1       8       1       1       8       1       1       8       1
       1       8       1       1       8       1       1       8       1       1
       8       1       1       8       1       1       8       1       1       8
       1       1       8       1       1       8       1       1       8       1
       1       8       1       1       8       1       1       8       1       1
       8       1       1       8       1       1       8       1       1       8
       1       1       8       1       1       8       1       1       8       1
       1       8       1       1       8       1       1       8       1       1
       8       1       1       8       1       1       8       1       1       8
       1       1       8       1       1       8       1       1       8       1
       1       8       1       1       8       1       1       8       1       1
       8       1       1       8       1       1       8       1       1       8
       1       1       8       1       1       8       1       1       8       1
       1       8       1       1       8       1       1       8       1       1
       8       1       1       8       1       1       8       1       1       8
       1       1       8       1       1       8       1       1       8       1
       1       8       1       1       8       1       1       8       1       1
       8       1       1       8       1       1       8       1       1       8
       1       1       8       1       1       8       1       1       8       1
       1       8       1       1       8       1       1       8       1       1
       8       1       1       8       1       1       8       1       1       8
       1       1       8       1       1       8       1       1       8       1
       1       8       1       1       8       1       1       8       1       1
       8       1       1       8       1       1       8       1       1       8
       1       1       8       1       1       8       1       1       8       1
       1       8       1       1       8       1       1       8       1       1
       8       1       1       8       1       1       8       1       1       8
       1       1       8       1       1       8       1       1       8       1
       1       8       1       1       8       1       1       8       1       1
       8       1       1       8       1       1       8       1       1       8
       1       1       8       1       1       8       1       1       8       1
       1       8       1       1       8       1       1       8       1       1
       8       1       1       8       1       1       8       1       1       8
       1       1       8       1       1       8       1       1       8       1
       1       8       1       1       8       1       1       8       1       1
       8       1       1       8       1       1       8       1       1       8
       1       1       8       1       1       8       1       1       8       1
       1       8       1       1       8       1       1       8       1       1
       8       1       1       8       1       1       8       1       1       8
       1       1       8       1       1       8       1       1       8       1
       1       8       1       1       8       1       1       8       1       1
       8       1       1       8       1       1       8       1       1       8
       1       1       8       1       1       8       1       1       8       1
       1       8       1       1       8       1       1       8       1       1
       8       1       1       8       1       1       8       1       1       8
       1       1       8       1       1       8       1       1       8       1
       1       8       1       1       8       1       1       8       1       1
       8       1       1       8       1       1       8       1       1       8
       1       1       8       1       1       8       1       1       8       1
       1       8       1       1       8       1       1       8       1       1
       8       1       1       8       1       1       8       1       1       8
       1       1       8       1       1       8       1       1       8       1
       1       8       1       1       8       1       1       8       1       1
       8       1       1       8       1       1       8       1       1       8
       1       1       8       1       1       8       1       1       8       1
       1       8       1       1       8       1       1       8       1       1
       8       1       1       8       1       1       8       1       1       8
       1       1       8       1       1       8       1       1       8       1
       1       8       1       1       8       1       1       8       1       1
       8       1       1       8       1       1       8       1       1       8
       1       1       8       1       1       8       1       1       8       1
       1       8       1       1       8       1       1       8       1       1
       8       1       1       8       1       1       8       1       1       8
       1       1       8       1       1       8       1       1       8       1
       1       8       1       1       8       1       1       8       1       1
       8       1       1       8       1       1       8       1       1       8
       1       1       8       1       1       8       1       1       8       1
       1       8       1       1       8       1       1       8       1       1
       8       1       1       8       1       1       8       1       1       8
       1       1       8       1       1       8       1       1       8       1
       1       8       1       1       8       1       1       8       1       1
       8       1       1       8       1       1       8       1       1       8
       1       1       8       1       1       8       1       1       8       1
       1       8       1       1       8       1       1       8       1       1
       8       1       1       8       1       1       8       1       1       8
       1       1       8       1       1       8       1       1       8       1
       1       8       1       1       8       1       1       8       1       1
       8       1       1       8       1       1       8       1       1       8
       1       1       8       1       1       8       1       1       8       1
       1       8       1       1       8       1       1       8       1       1
       8       1       1       8       1       1       8       1       1       8
       1       1       8       1       1       8       1       1       8       1
       1       8       1       1       8       1       1       8       1       1
       8       1       1       8       1       1       8       1       1       8
       1       1       8       1       1       8       1       1       8       1
       1       8       1       1       8       1       1       8       1       1
       8       1       1       8       1       1       8       1       1       8
       1       1       8       1       1       8       1       1       8       1
       1       8       1       1       8       1       1       8       1       1
       8       1       1       8       1       1       8       1       1       8
       1       1       8       1       1       8       1       1       8       1
       1       8       1       1       8       1       1       8       1       1
       8       1       1       8       1       1       8       1       1       8
       1       1       8       1       1       8       1       1       8       1
       1       8       1       1       8       1       1       8       1       1
       8       1       1       8       1       1       8       1       1       8
       1       1       8       1       1       8       1       1       8       1
       1       8       1       1       8       1       1       8       1       1
       8       1       1       8       1       1       8       1       1       8
       1       1       8       1       1       8       1       1       8       1
       1       8       1       1       8       1       1       8       1       1
       8       1       1       8       1       1       8       1       1       8
       1       1       8       1       1       8       1       1       8       1
       1       8       1       1       8       1       1       8       1       1
       8       1       1       8       1       1       8       1       1       8
       1       1       8       1       1       8       1       1       8       1
       1       8       1       1       8       1       1       8       1       1
       8       1       1       8       1       1       8       1       1       8
       1       1       8       1       1       8       1       1       8       1
       1       8       1       1       8       1       1       8       1       1
       8       1       1       8       1       1       8       1       1       8
       1       1       8       1       1       8       1       1       8       1
       1       8       1       1       8       1       1       8       1       1
       8       1       1       8       1       1       8       1       1       8
       1       1       8       1       1       8       1       1       8       1
       1       8       1       1       8       1       1       8       1       1
       8       1       1       8       1       1       8       1       1       8
       1       1       8       1       1       8       1       1       8       1
       1       8       1       1       8       1       1       8       1       1
       8       1       1       8       1       1       8       1       1       8
       1       1       8       1       1       8       1       1       8       1
       1       8       1       1       8       1       1       8       1       1
       8       1       1       8       1       1       8       1       1       8
       1       1       8       1       1       8       1       1       8       1
       1       8       1       1       8       1       1       8       1       1
       8       1       1       8       1       1       8       1       1       8
       1       1       8       1       1       8       1       1       8       1
       1       8       1       1       8       1       1       8       1       1
       8       1       1       8       1       1       8       1       1       8
       1       1       8       1       1       8       1       1       8       1
       1       8       1       1       8       1       1       8       1       1
       8       1       1       8       1       1       8       1       1       8
       1       1       8       1       1       8       1       1       8       1
       1       8       1       1       8       1       1       8       1       1
       8       1       1       8       1       1       8       1       1       8
       1       1       8       1       1       8       1       1       8       1
       1       8       1       1       8       1       1       8       1       1
       8       1       1       8       1       1       8       1       1       8
       1       1       8       1       1       8       1       1       8       1
       1       8       1       1       8       1       1       8       1       1
       8       1       1       8       1       1       8       1       1       8
       1       1       8       1       1       8       1       1       8       1
       1       8       1       1       8       1       1       8       1       1
       8       1       1       8       1       1       8       1       1       8
       1       1       8       1       1       8       1       1       8       1
       1       8       1       1       8       1       1       8       1       1
       8       1       1       8       1       1       8       1       1       8
       1       1       8       1       1       8       1       1       8       1
       1       8       1       1       8       1       1       8       1       1
       8       1       1       8       1       1       8       1       1       8
       1       1       8       1       1       8       1       1       8       1
       1       8       1       1       8       1       1       8       1       1
       8       1       1       8       1       1       8       1       1       8
       1       1       8       1       1       8       1       1       8       1
       1       8       1       1       8       1       1       8       1       1
       8       1       1       8       1       1       8       1       1       8
       1       1       8       1       1       8       1       1       8       1
       1       8       1       1       8       1       1       8       1       1
       8       1       1       8       1       1       8       1       1       8
       1       1       8       1       1       8       1       1       8       1
       1       8       1       1       8       1       1       8       1       1
       8       1       1       8       1       1       8       1       1       8
       1       1       8       1       1       8       1       1       8       1
       1       8       1       1       8       1       1       8       1       1
       8       1       1       8       1       1       8       1       1       8
       1       1       8       1       1       8       1       1       8       1
       1       8       1       1       8       1       1       8       1       1
       8       1       1       8       1       1       8       1       1       8
       1       1       8       1       1       8       1       1       8       1
       1       8       1       1       8       1       1       8       1       1
       8       1       1       8       1       1       8       1       1       8
       1       1       8       1       1       8       1       1       8       1
       1       8       1       1       8       1       1       8       1       1
       8       1       1       8       1       1       8       1       1       8
       1       1       8       1       1       8       1       1       8       1
       1       8       1       1       8       1       1       8       1       1
       8       1       1       8       1       1       8       1       1       8
       1       1       8       1       1       8       1       1       8       1
       1       8       1       1       8       1       1       8       1       1
       8       1       1       8       1       1       8       1       1       8
       1       1       8       1       1       8       1       1       8       1
       1       8       1       1       8       1       1       8       1       1
       8       1       1       8       1       1       8       1       1       8
       1       1       8       1       1       8       1       1       8       1
       1       8       1       1       8       1       1       8       1       1
       8       1       1       8       1       1       8       1       1       8
       1       1       8       1       1       8       1       1       8       1
       1       8       1       1       8       1       1       8       1       1
       8       1       1       8       1       1       8       1       1       8
       1       1       8       1       1       8       1       1       8       1
       1       8       1       1       8       1       1       8       1       1
       8       1       1       8       1       1       8       1       1       8
       1       1       8       1       1       8       1       1       8       1
       1       8       1       1       8       1       1       8       1       1
       8       1       1       8       1       1       8       1       1       8
       1       1       8       1       1       8       1       1       8       1
       1       8       1       1       8       1       1       8       1       1
       8       1       1       8       1       1       8       1       1       8
       1       1       8       1       1       8       1       1       8       1
       1       8       1       1       8       1       1       8       1       1
       8       1       1       8       1       1       8       1       1       8
       1       1       8       1       1       8       1       1       8       1
       1       8       1       1       8       1       1       8       1       1
       8       1       1       8       1       1       8       1       1       8
       1       1       8       1       1       8       1       1       8       1
       1       8       1       1       8       1       1       8       1       1
       8       1       1       8       1       1       8       1       1       8
       1       1       8       1       1       8       1       1       8       1
       1       8       1       1       8       1       1       8       1       1
       8       1       1       8       1       1       8       1       1       8
       1       1       8       1       1       8       1       1       8       1
       1       8       1       1       8       1       1       8       1       1
       8       1       1       8       1       1       8       1       1       8
       1       1       8       1       1       8       1       1       8       1
       1       8       1       1       8       1       1       8       1       1
       8       1       1       8       1       1       8       1       1       8
       1       1       8       1       1       8       1       1       8       1
       1       8       1       1       8       1       1       8       1       1
       8       1       1       8       1       1       8       1       1       8
       1       1       8       1       1       8       1       1       8       1
       1       8       1       1       8       1       1       8       1       1
       8       1       1       8       1       1       8       1       1       8
       1       1       8       1       1       8       1       1       8       1
       1       8       1       1       8       1       1       8       1       1
       8       1       1       8       1       1       8       1       1       8
       1       1       8       1       1       8       1       1       8       1
       1       8       1       1       8       1       1       8       1       1
       8       1       1       8       1       1       8       1       1       8
       1       1       8       1       1       8       1       1       8       1
       1       8       1       1       8       1       1       8       1       1
       8       1       1       8       1       1       8       1       1       8
       1       1       8       1       1       8       1       1       8       1
       1       8       1       1       8       1       1       8       1       1
       8       1       1       8       1       1       8       1       1       8
       1       1       8       1       1       8       1       1       8       1
       1       8       1       1       8       1       1       8       1       1
       8       1       1       8       1       1       8       1       1       8
       1       1       8       1       1       8       1       1       8       1
       1       8       1       1       8       1       1       8       1       1
       8       1       1       8       1       1       8       1       1       8
       1       1       8       1       1       8       1       1       8       1
       1       8       1       1       8       1       1       8       1       1
       8       1       1       8       1       1       8       1       1       8
       1       1       8       1       1       8       1       1       8       1
       1       8       1       1       8       1       1       8       1       1
       8       1       1       8       1       1       8       1       1       8
       1       1       8       1       1       8       1       1       8       1
       1       8       1       1       8       1       1       8       1       1
       8       1       1       8       1       1       8       1       1       8
       1       1       8       1       1       8       1       1       8       1
       1       8       1       1       8       1       1       8       1       1
       8       1       1       8       1       1       8       1       1       8
       1       1       8       1       1       8       1       1       8       1
       1       8       1       1       8       1       1       8       1       1
       8       1       1       8       1       1       8       1       1       8
       1       1       8       1       1       8       1       1       8       1
       1       8       1       1       8       1       1       8       1       1
       8       1       1       8       1       1       8       1       1       8
       1       1       8       1       1       8       1       1       8       1
       1       8       1       1       8       1       1       8       1       1
       8       1       1       8       1       1       8       1       1       8
       1       1       8       1       1       8       1       1       8       1
       1       8       1       1       8       1       1       8       1       1
       8       1       1       8       1       1       8       1       1       8
       1       1       8       1       1       8       1       1       8       1
       1       8       1       1       8       1       1       8       1       1
       8       1       1       8       1       1       8       1       1       8
       1       1       8       1       1       8       1       1       8       1
       1       8       1       1       8       1       1       8       1       1
       8       1       1       8       1       1       8       1       1       8
       1       1       8       1       1       8       1       1       8       1
       1       8       1       1       8       1       1       8       1       1
       8       1       1       8       1       1       8       1       1       8
       1       1       8       1       1       8       1       1       8       1
       1       8       1       1       8       1       1       8       1       1
       8       1       1       8       1       1       8       1       1       8
       1       1       8       1       1       8       1       1       8       1
       1       8       1       1       8       1       1       8       1       1
       8       1       1       8       1       1       8       1       1       8
       1       1       8       1       1       8       1       1       8       1
       1       8       1       1       8       1       1       8       1       1
       8       1       1       8       1       1       8       1       1       8
       1       1       8       1       1       8       1       1       8       1
       1       8       1       1       8       1       1       8       1       1
       8       1       1       8       1       1       8       1       1       8
       1       1       8       1       1       8       1       1       8       1
       1       8       1       1       8       1       1       8       1       1
       8       1       1       8       1       1       8       1       1       8
       1       1       8       1       1       8       1       1       8       1
       1       8       1       1       8       1       1       8       1       1
       8       1       1       8       1       1       8       1       1       8
       1       1       8       1       1       8       1       1       8       1
       1       8       1       1       8       1       1       8       1       1
       8       1       1       8       1       1       8       1       1       8
       1       1       8       1       1       8       1       1       8       1
       1       8       1       1       8       1       1       8       1       1
       8       1       1       8       1       1       8       1       1       8
       1       1       8       1       1       8       1       1       8       1
       1       8       1       1       8       1       1       8       1       1
       8       1       1       8       1       1       8       1       1       8
       1       1       8       1       1       8       1       1       8       1
       1       8       1       1       8       1       1       8       1       1
       8       1       1       8       1       1       8       1       1       8
       1       1       8       1       1       8       1       1       8       1
       1       8       1       1       8       1       1       8       1       1
       8       1       1       8       1       1       8       1       1       8
       1       1       8       1       1       8       1       1       8       1
       1       8       1       1       8       1       1       8       1       1
       8       1       1       8       1       1       8       1       1       8
       1       1       8       1       1       8       1       1       8       1
       1       8       1       1       8       1       1       8       1       1
       8       1       1       8       1       1       8       1       1       8
       1       1       8       1       1       8       1       1       8       1
       1       8       1       1       8       1       1       8       1       1
       8       1       1       8       1       1       8       1       1       8
       1       1       8       1       1       8       1       1       8       1
       1       8       1       1       8       1       1       8       1       1
       8       1       1       8       1       1       8       1       1       8
       1       1       8       1       1       8       1       1       8       1
       1       8       1       1       8       1       1       8       1       1
       8       1       1       8       1       1       8       1       1       8
       1       1       8       1       1       8       1       1       8       1
       1       8       1       1       8       1       1       8       1       1
       8       1       1       8       1       1       8       1       1       8
       1       1       8       1       1       8       1       1       8       1
       1       8       1       1       8       1       1       8       1       1
       8       1       1       8       1       1       8       1       1       8
       1       1       8       1       1       8       1       1       8       1
       1       8       1       1       8       1       1       8       1       1
       8       1       1       8       1       1       8       1       1       8
       1       1       8       1       1       8       1       1       8       1
       1       8       1       1       8       1       1       8       1       1
       8       1       1       8       1       1       8       1       1       8
       1       1       8       1       1       8       1       1       8       1
       1       8       1       1       8       1       1       8       1       1
       8       1       1       8       1       1       8       1       1       8
       1       1       8       1       1       8       1       1       8       1
       1       8       1       1       8       1       1       8       1       1
       8       1       1       8       1       1       8       1       1       8
       1       1       8       1       1       8       1       1       8       1
       1       8       1       1       8       1       1       8       1       1
       8       1       1       8       1       1       8       1       1       8
       1       1       8       1       1       8       1       1       8       1
       1       8       1       1       8       1       1       8       1       1
       8       1       1       8       1       1       8       1       1       8
       1       1       8       1       1       8       1       1       8       1
       1       8       1       1       8       1       1       8       1       1
       8       1       1       8       1       1       8       1       1       8
       1       1       8       1       1       8       1       1       8       1
       1       8       1       1       8       1       1       8       1       1
       8       1       1       8       1       1       8       1       1       8
       1       1       8       1       1       8       1       1       8       1
       1       8       1       1       8       1       1       8       1       1
       8       1       1       8       1       1       8       1       1       8
       1       1       8       1       1       8       1       1       8       1
       1       8       1       1       8       1       1       8       1       1
       8       1       1       8       1       1       8       1       1       8
       1       1       8       1       1       8       1       1       8       1
       1       8       1       1       8       1       1       8       1       1
       8       1       1       8       1       1       8       1       1       8
       1       1       8       1       1       8       1       1       8       1
       1       8       1       1       8       1       1       8       1       1
       8       1       1       8       1       1       8       1       1       8
       1       1       8       1       1       8       1       1       8       1
       1       8       1       1       8       1       1       8       1       1
       8       1       1       8       1       1       8       1       1       8
       1       1       8       1       1       8       1       1       8       1
       1       8       1       1       8       1       1       8       1       1
       8       1       1       8       1       1       8       1       1       8
       1       1       8       1       1       8       1       1       8       1
       1       8       1       1       8       1       1       8       1       1
       8       1       1       8       1       1       8       1       1       8
       1       1       8       1       1       8       1       1       8       1
       1       8       1       1       8       1       1       8       1       1
       8       1       1       8       1       1       8       1       1       8
       1       1       8       1       1       8       1       1       8       1
       1       8       1       1       8       1       1       8       1       1
       8       1       1       8       1       1       8       1       1       8
       1       1       8       1       1       8       1       1       8       1
       1       8       1       1       8       1       1       8       1       1
       8       1       1       8       1       1       8       1       1       8
       1       1       8       1       1       8       1       1       8       1
       1       8       1       1       8       1       1       8       1       1
       8       1       1       8       1       1       8       1       1       8
       1       1       8       1       1       8       1       1       8       1
       1       8       1       1       8       1       1       8       1       1
       8       1       1       8       1       1       8       1       1       8
       1       1       8       1       1       8       1       1       8       1
       1       8       1       1       8       1       1       8       1       1
       8       1       1       8       1       1       8       1       1       8
       1       1       8       1       1       8       1       1       8       1
       1       8       1       1       8       1       1       8       1       1
       8       1       1       8       1       1       8       1       1       8
       1       1       8       1       1       8       1       1       8       1
       1       8       1       1       8       1       1       8       1       1
       8       1       1       8       1       1       8       1       1       8
       1       1       8       1       1       8       1       1       8       1
       1       8       1       1       8       1       1       8       1       1
       8       1       1       8       1       1       8       1       1       8
       1       1       8       1       1       8       1       1       8       1
       1       8       1       1       8       1       1       8       1       1
       8       1       1       8       1       1       8       1       1       8
       1       1       8       1       1       8       1       1       8       1
       1       8       1       1       8       1       1       8       1       1
       8       1       1       8       1       1       8       1       1       8
       1       1       8       1       1       8       1       1       8       1
       1       8       1       1       8       1       1       8       1       1
       8       1       1       8       1       1       8       1       1       8
       1       1       8       1       1       8       1       1       8       1
       1       8       1       1       8       1       1       8       1       1
       8       1       1       8       1       1       8       1       1       8
       1       1       8       1       1       8       1       1       8       1
       1       8       1       1       8       1       1       8       1       1
       8       1       1       8       1       1       8       1       1       8
       1       1       8       1       1       8       1       1       8       1
       1       8       1       1       8       1       1       8       1       1
       8       1       1       8       1       1       8       1       1       8
       1       1       8       1       1       8       1       1       8       1
       1       8       1       1       8       1       1       8       1       1
       8       1       1       8       1       1       8       1       1       8
       1       1       8       1       1       8       1       1       8       1
       1       8       1       1       8       1       1       8       1       1
       8       1       1       8       1       1       8       1       1       8
       1       1       8       1       1       8       1       1       8       1
       1       8       1       1       8       1       1       8       1       1
       8       1       1       8       1       1       8       1       1       8
       1       1       8       1       1       8       1       1       8       1
       1       8       1       1       8       1       1       8       1       1
       8       1       1       8       1       1       8       1       1       8
       1       1       8       1       1       8       1       1       8       1
       1       8       1       1       8       1       1       8       1       1
       8       1       1       8       1       1       8       1       1       8
       1       1       8       1       1       8       1       1       8       1
       1       8       1       1       8       1       1       8       1       1
       8       1       1       8       1       1       8       1       1       8
       1       1       8       1       1       8       1       1       8       1
       1       8       1       1       8       1       1       8       1       1
       8       1       1       8       1       1       8       1       1       8
       1       1       8       1       1       8       1       1       8       1
       1       8       1       1       8       1       1       8       1       1
       8       1       1       8       1       1       8       1       1       8
       1       1       8       1       1       8       1       1       8       1
       1       8       1       1       8       1       1       8       1       1
       8       1       1       8       1       1       8       1       1       8
       1       1       8       1       1       8       1       1       8       1
       1       8       1       1       8       1       1       8       1       1
       8       1       1       8       1       1       8       1       1       8
       1       1       8       1       1       8       1       1       8       1
       1       8       1       1       8       1       1       8       1       1
       8       1       1       8       1       1       8       1       1       8
       1       1       8       1       1       8       1       1       8       1
       1       8       1       1       8       1       1       8       1       1
       8       1       1       8       1       1       8       1       1       8
       1       1       8       1       1       8       1       1       8       1
       1       8       1       1       8       1       1       8       1       1
       8       1       1       8       1       1       8       1       1       8
       1       1       8       1       1       8       1       1       8       1
       1       8       1       1       8       1       1       8       1       1
       8       1       1       8       1       1       8       1       1       8
       1       1       8       1       1       8       1       1       8       1
       1       8       1       1       8       1       1       8       1       1
       8       1       1       8       1       1       8       1       1       8
       1       1       8       1       1       8       1       1       8       1
       1       8       1       1       8       1       1       8       1       1
       8       1       1       8       1       1       8       1       1       8
       1       1       8       1       1       8       1       1       8       1
       1       8       1       1       8       1       1       8       1       1
       8       1       1       8       1       1       8       1       1       8
       1       1       8       1       1       8       1       1       8       1
       1       8       1       1       8       1       1       8       1       1
       8       1       1       8       1       1       8       1       1       8
       1       1       8       1       1       8       1       1       8       1
       1       8       1       1       8       1       1       8       1       1
       8       1       1       8       1       1       8       1       1       8
       1       1       8       1       1       8       1       1       8       1
       1       8       1       1       8       1       1       8       1       1
       8       1       1       8       1       1       8       1       1       8
       1       1       8       1       1       8       1       1       8       1
       1       8       1       1       8       1       1       8       1       1
       8       1       1       8       1       1       8       1       1       8
       1       1       8       1       1       8       1       1       8       1
       1       8       1       1       8       1       1       8       1       1
       8       1       1       8       1       1       8       1       1       8
       1       1       8       1       1       8       1       1       8       1
       1       8       1       1       8       1       1       8       1       1
       8       1       1       8       1       1       8       1       1       8
       1       1       8       1       1       8       1       1       8       1
       1       8       1       1       8       1       1       8       1       1
       8       1       1       8       1       1       8       1       1       8
       1       1       8       1       1       8       1       1       8       1
       1       8       1       1       8       1       1       8       1       1
       8       1       1       8       1       1       8       1       1       8
       1       1       8       1       1       8       1       1       8       1
       1       8       1       1       8       1       1       8       1       1
       8       1       1       8       1       1       8       1       1       8
       1       1       8       1       1       8       1       1       8       1
       1       8       1       1       8       1       1       8       1       1
       8       1       1       8       1       1       8       1       1       8
       1       1       8       1       1       8       1       1       8       1
       1       8       1       1       8       1       1       8       1       1
       8       1       1       8       1       1       8       1       1       8
       1       1       8       1       1       8       1       1       8       1
       1       8       1       1       8       1       1       8       1       1
       8       1       1       8       1       1       8       1       1       8
       1       1       8       1       1       8       1       1       8       1
       1       8       1       1       8       1       1       8       1       1
       8       1       1       8       1       1       8       1       1       8
       1       1       8       1       1       8       1       1       8       1
       1       8       1       1       8       1       1       8       1       1
       8       1       1       8       1       1       8       1       1       8
       1       1       8       1       1       8       1       1       8       1
       1       8       1       1       8       1       1       8       1       1
       8       1       1       8       1       1       8       1       1       8
       1       1       8       1       1       8       1       1       8       1
       1       8       1       1       8       1       1       8       1       1
       8       1       1       8       1       1       8       1       1       8
       1       1       8       1       1       8       1       1       8       1
       1       8       1       1       8       1       1       8       1       1
       8       1       1       8       1       1       8       1       1       8
       1       1       8       1       1       8       1       1       8       1
       1       8       1       1       8       1       1       8       1       1
       8       1       1       8       1       1       8       1       1       8
       1       1       8       1       1       8       1       1       8       1
       1       8       1       1       8       1       1       8       1       1
       8       1       1       8       1       1       8       1       1       8
       1       1       8       1       1       8       1       1       8       1
       1       8       1       1       8       1       1       8       1       1
       8       1       1       8       1       1       8       1       1       8
       1       1       8       1       1       8       1       1       8       1
       1       8       1       1       8       1       1       8       1       1
       8       1       1       8       1       1       8       1       1       8
       1       1       8       1       1       8       1       1       8       1
       1       8       1       1       8       1       1       8       1       1
       8       1       1       8       1       1       8       1       1       8
       1       1       8       1       1       8       1       1       8       1
       1       8       1       1       8       1       1       8       1       1
       8       1       1       8       1       1       8       1       1       8
       1       1       8       1       1       8       1       1       8       1
       1       8       1       1       8       1       1       8       1       1
       8       1       1       8       1       1       8       1       1       8
       1       1       8       1       1       8       1       1       8       1
       1       8       1       1       8       1       1       8       1       1
       8       1       1       8       1       1       8       1       1       8
       1       1       8       1       1       8       1       1       8       1
       1       8       1       1       8       1       1       8       1       1
       8       1       1       8       1       1       8       1       1       8
       1       1       8       1       1       8       1       1       8       1
       1       8       1       1       8       1       1       8       1       1
       8       1       1       8       1       1       8       1       1       8
       1       1       8       1       1       8       1       1       8       1
       1       8       1       1       8       1       1       8       1       1
       8       1       1       8       1       1       8       1       1       8
       1       1       8       1       1       8       1       1       8       1
       1       8       1       1       8       1       1       8       1       1
       8       1       1       8       1       1       8       1       1       8
       1       1       8       1       1       8       1       1       8       1
       1       8       1       1       8       1       1       8       1       1
       8       1       1       8       1       1       8       1       1       8
       1       1       8       1       1       8       1       1       8       1
       1       8       1       1       8       1       1       8       1       1
       8       1       1       8       1       1       8       1       1       8
       1       1       8       1       1       8       1       1       8       1
       1       8       1       1       8       1       1       8       1       1
       8       1       1       8       1       1       8       1       1       8
       1       1       8       1       1       8       1       1       8       1
       1       8       1       1       8       1       1       8       1       1
       8       1       1       8       1       1       8       1       1       8
       1       1       8       1       1       8       1       1       8       1
       1       8       1       1       8       1       1       8       1       1
       8       1       1       8       1       1       8       1       1       8
       1       1       8       1       1       8       1       1       8       1
       1       8       1       1       8       1       1       8       1       1
       8       1       1       8       1       1       8       1       1       8
       1       1       8       1       1       8       1       1       8       1
       1       8       1       1       8       1       1       8       1       1
       8       1       1       8       1       1       8       1       1       8
       1       1       8       1       1       8       1       1       8       1
       1       8       1       1       8       1       1       8       1       1
       8       1       1       8       1       1       8       1       1       8
       1       1       8       1       1       8       1       1       8       1
       1       8       1       1       8       1       1       8       1       1
       8       1       1       8       1       1       8       1       1       8
       1       1       8       1       1       8       1       1       8       1
       1       8       1       1       8       1       1       8       1       1
       8       1       1       8       1       1       8       1       1       8
       1       1       8       1       1       8       1       1       8       1
       1       8       1       1       8       1       1       8       1       1
       8       1       1       8       1       1       8       1       1       8
       1       1       8       1       1       8       1       1       8       1
       1       8       1       1       8       1       1       8       1       1
       8       1       1       8       1       1       8       1       1       8
       1       1       8       1       1       8       1       1       8       1
       1       8       1       1       8       1       1       8       1       1
       8       1       1       8       1       1       8       1       1       8
       1       1       8       1       1       8       1       1       8       1
       1       8       1       1       8       1       1       8       1       1
       8       1       1       8       1       1       8       1       1       8
       1       1       8       1       1       8       1       1       8       1
       1       8       1       1       8       1       1       8       1       1
       8       1       1       8       1       1       8       1       1       8
       1       1       8       1       1       8       1       1       8       1
       1       8       1       1       8       1       1       8       1       1
       8       1       1       8       1       1       8       1       1       8
       1       1       8       1       1       8       1       1       8       1
       1       8       1       1       8       1       1       8       1       1
       8       1       1       8       1       1       8       1       1       8
       1       1       8       1       1       8       1       1       8       1
       1       8       1       1       8       1       1       8       1       1
       8       1       1       8       1       1       8       1       1       8
       1       1       8       1       1       8       1       1       8       1
       1       8       1       1       8       1       1       8       1       1
       8       1       1       8       1       1       8       1       1       8
       1       1       8       1       1       8       1       1       8       1
       1       8       1       1       8       1       1       8       1       1
       8       1       1       8       1       1       8       1       1       8
       1       1       8       1       1       8       1       1       8       1
       1       8       1       1       8       1       1       8       1       1
       8       1       1       8       1       1       8       1       1       8
       1       1       8       1       1       8       1       1       8       1
       1       8       1       1       8       1       1       8       1       1
       8       1       1       8       1       1       8       1       1       8
       1       1       8       1       1       8       1       1       8       1
       1       8       1       1       8       1       1       8       1       1
       8       1       1       8       1       1       8       1       1       8
       1       1       8       1       1       8       1       1       8       1
       1       8       1       1       8       1       1       8       1       1
       8       1       1       8       1       1       8       1       1       8
       1       1       8       1       1       8       1       1       8       1
       1       8       1       1       8       1       1       8       1       1
       8       1       1       8       1       1       8       1       1       8
       1       1       8       1       1       8       1       1       8       1
       1       8       1       1       8       1       1       8       1       1
       8       1       1       8       1       1       8       1       1       8
       1       1       8       1       1       8       1       1       8       1
       1       8       1       1       8       1       1       8       1       1
       8       1       1       8       1       1       8       1       1       8
       1       1       8       1       1       8       1       1       8       1
       1       8       1       1       8       1       1       8       1       1
       8       1       1       8       1       1       8       1       1       8
       1       1       8       1       1       8       1       1       8       1
       1       8       1       1       8       1       1       8       1       1
       8       1       1       8       1       1       8       1       1       8
       1       1       8       1       1       8       1       1       8       1
       1       8       1       1       8       1       1       8       1       1
       8       1       1       8       1       1       8       1       1       8
       1       1       8       1       1       8       1       1       8       1
       1       8       1       1       8       1       1       8       1       1
       8       1       1       8       1       1       8       1       1       8
       1       1       8       1       1       8       1       1       8       1
       1       8       1       1       8       1       1       8       1       1
       8       1       1       8       1       1       8       1       1       8
       1       1       8       1       1       8       1       1       8       1
       1       8       1       1       8       1       1       8       1       1
       8       1       1       8       1       1       8       1       1       8
       1       1       8       1       1       8       1       1       8       1
       1       8       1       1       8       1       1       8       1       1
       8       1       1       8       1       1       8       1       1       8
       1       1       8       1       1       8       1       1       8       1
       1       8       1       1       8       1       1       8       1       1
       8       1       1       8       1       1       8       1       1       8
       1       1       8       1       1       8       1       1       8       1
       1       8       1       1       8       1       1       8       1       1
       8       1       1       8       1       1       8       1       1       8
       1       1       8       1       1       8       1       1       8       1
       1       8       1       1       8       1       1       8       1       1
       8       1       1       8       1       1       8       1       1       8
       1       1       8       1       1       8       1       1       8       1
       1       8       1       1       8       1       1       8       1       1
       8       1       1       8       1       1       8       1       1       8
       1       1       8       1       1       8       1       1       8       1
       1       8       1       1       8       1       1       8       1       1
       8       1       1       8       1       1       8       1       1       8
       1       1       8       1       1       8       1       1       8       1
       1       8       1       1       8       1       1       8       1       1
       8       1       1       8       1       1       8       1       1       8
       1       1       8       1       1       8       1       1       8       1
       1       8       1       1       8       1       1       8       1       1
       8       1       1       8       1       1       8       1       1       8
       1       1       8       1       1       8       1       1       8       1
       1       8       1       1       8       1       1       8       1       1
       8       1       1       8       1       1       8       1       1       8
       1       1       8       1       1       8       1       1       8       1
       1       8       1       1       8       1       1       8       1       1
       8       1       1       8       1       1       8       1       1       8
       1       1       8       1       1       8       1       1       8       1
       1       8       1       1       8       1       1       8       1       1
       8       1       1       8       1       1       8       1       1       8
       1       1       8       1       1       8       1       1       8       1
       1       8       1       1       8       1       1       8       1       1
       8       1       1       8       1       1       8       1       1       8
       1       1       8       1       1       8       1       1       8       1
       1       8       1       1       8       1       1       8       1       1
       8       1       1       8       1       1       8       1       1       8
       1       1       8       1       1       8       1       1       8       1
       1       8       1       1       8       1       1       8       1       1
       8       1       1       8       1       1       8       1       1       8
       1       1       8       1       1       8       1       1       8       1
       1       8       1       1       8       1       1       8       1       1
       8       1       1       8       1       1       8       1       1       8
       1       1       8       1       1       8       1       1       8       1
       1       8       1       1       8       1       1       8       1       1
       8       1       1       8       1       1       8       1       1       8
       1       1       8       1       1       8       1       1       8       1
       1       8       1       1       8       1       1       8       1       1
       8       1       1       8       1       1       8       1       1       8
       1       1       8       1       1       8       1       1       8       1
       1       8       1       1       8       1       1       8       1       1
       8       1       1       8       1       1       8       1       1       8
       1       1       8       1       1       8       1       1       8       1
       1       8       1       1       8       1       1       8       1       1
       8       1       1       8       1       1       8       1       1       8
       1       1       8       1       1       8       1       1       8       1
       1       8       1       1       8       1       1       8       1       1
       8       1       1       8       1       1       8       1       1       8
       1       1       8       1       1       8       1       1       8       1
       1       8       1       1       8       1       1       8       1       1
       8       1       1       8       1       1       8       1       1       8
       1       1       8       1       1       8       1       1       8       1
       1       8       1       1       8       1       1       8       1       1
       8       1       1       8       1       1       8       1       1       8
       1       1       8       1       1       8       1       1       8       1
       1       8       1       1       8       1       1       8       1       1
       8       1       1       8       1       1       8       1       1       8
       1       1       8       1       1       8       1       1       8       1
       1       8       1       1       8       1       1       8       1       1
       8       1       1       8       1       1       8       1       1       8
       1       1       8       1       1       8       1       1       8       1
       1       8       1       1       8       1       1       8       1       1
       8       1       1       8       1       1       8       1       1       8
       1       1       8       1       1       8       1       1       8       1
       1       8       1       1       8       1       1       8       1       1
       8       1       1       8       1       1       8       1       1       8
       1       1       8       1       1       8       1       1       8       1
       1       8       1       1       8       1       1       8       1       1
       8       1       1       8       1       1       8       1       1       8
       1       1       8       1       1       8       1       1       8       1
       1       8       1       1       8       1       1       8       1       1
       8       1       1       8       1       1       8       1       1       8
       1       1       8       1       1       8       1       1       8       1
       1       8       1       1       8       1       1       8       1       1
       8       1       1       8       1       1       8       1       1       8
       1       1       8       1       1       8       1       1       8       1
       1       8       1       1       8       1       1       8       1       1
       8       1       1       8       1       1       8       1       1       8
       1       1       8       1       1       8       1       1       8       1
       1       8       1       1       8       1       1       8       1       1
       8       1       1       8       1       1       8       1       1       8
       1       1       8       1       1       8       1       1       8       1
       1       8       1       1       8       1       1       8       1       1
       8       1       1       8       1       1       8       1       1       8
       1       1       8       1       1       8       1       1       8       1
       1       8       1       1       8       1       1       8       1       1
       8       1       1       8       1       1       8       1       1       8
       1       1       8       1       1       8       1       1       8       1
       1       8       1       1       8       1       1       8       1       1
       8       1       1       8       1       1       8       1       1       8
       1       1       8       1       1       8       1       1       8       1
       1       8       1       1       8       1       1       8       1       1
       8       1       1       8       1       1       8       1       1       8
       1       1       8       1       1       8       1       1       8       1
       1       8       1       1       8       1       1       8       1       1
       8       1       1       8       1       1       8       1       1       8
       1       1       8       1       1       8       1       1       8       1
       1       8       1       1       8       1       1       8       1       1
       8       1       1       8       1       1       8       1       1       8
       1       1       8       1       1       8       1       1       8       1
       1       8       1       1       8       1       1       8       1       1
       8       1       1       8       1       1       8       1       1       8
       1       1       8       1       1       8       1       1       8       1
       1       8       1       1       8       1       1       8       1       1
       8       1       1       8       1       1       8       1       1       8
       1       1       8       1       1       8       1       1       8       1
       1       8       1       1       8       1       1       8       1       1
       8       1       1       8       1       1       8       1       1       8
       1       1       8       1       1       8       1       1       8       1
       1       8       1       1       8       1       1       8       1       1
       8       1       1       8       1       1       8       1       1       8
       1       1       8       1       1       8       1       1       8       1
       1       8       1       1       8       1       1       8       1       1
       8       1       1       8       1       1       8       1       1       8
       1       1       8       1       1       8       1       1       8       1
       1       8       1       1       8       1       1       8       1       1
       8       1       1       8       1       1       8       1       1       8
       1       1       8       1       1       8       1       1       8       1
       1       8       1       1       8       1       1       8       1       1
       8       1       1       8       1       1       8       1       1       8
       1       1       8       1       1       8       1       1       8       1
       1       8       1       1       8       1       1       8       1       1
       8       1       1       8       1       1       8       1       1       8
       1       1       8       1       1       8       1       1       8       1
       1       8       1       1       8       1       1       8       1       1
       8       1       1       8       1       1       8       1       1       8
       1       1       8       1       1       8       1       1       8       1
       1       8       1       1       8       1       1       8       1       1
       8       1       1       8       1       1       8       1       1       8
       1       1       8       1       1       8       1       1       8       1
       1       8       1       1       8       1       1       8       1       1
       8       1       1       8       1       1       8       1       1       8
       1       1       8       1       1       8       1       1       8       1
       1       8       1       1       8       1       1       8       1       1
       8       1       1       8       1       1       8       1       1       8
       1       1       8       1       1       8       1       1       8       1
       1       8       1       1       8       1       1       8       1       1
       8       1       1       8       1       1       8       1       1       8
       1       1       8       1       1       8       1       1       8       1
       1       8       1       1       8       1       1       8       1       1
       8       1       1       8       1       1       8       1       1       8
       1       1       8       1       1       8       1       1       8       1
       1       8       1       1       8       1       1       8       1       1
       8       1       1       8       1       1       8       1       1       8
       1       1       8       1       1       8       1       1       8       1
       1       8       1       1       8       1       1       8       1       1
       8       1       1       8       1       1       8       1       1       8
       1       1       8       1       1       8       1       1       8       1
       1       8       1       1       8       1       1       8       1       1
       8       1       1       8       1       1       8       1       1       8
       1       1       8       1       1       8       1       1       8       1
       1       8       1       1       8       1       1       8       1       1
       8       1       1       8       1       1       8       1       1       8
       1       1       8       1       1       8       1       1       8       1
       1       8       1       1       8       1       1       8       1       1
       8       1       1       8       1       1       8       1       1       8
       1       1       8       1       1       8       1       1       8       1
       1       8       1       1       8       1       1       8       1       1
       8       1       1       8       1       1       8       1       1       8
       1       1       8       1       1       8       1       1       8       1
       1       8       1       1       8       1       1       8       1       1
       8       1       1       8       1       1       8       1       1       8
       1       1       8       1       1       8       1       1       8       1
       1       8       1       1       8       1       1       8       1       1
       8       1       1       8       1       1       8       1       1       8
       1       1       8       1       1       8       1       1       8       1
       1       8       1       1       8       1       1       8       1       1
       8       1       1       8       1       1       8       1       1       8
       1       1       8       1       1       8       1       1       8       1
       1       8       1       1       8       1       1       8       1       1
       8       1       1       8       1       1       8       1       1       8
       1       1       8       1       1       8       1       1       8       1
       1       8       1       1       8       1       1       8       1       1
       8       1       1       8       1       1       8       1       1       8
       1       1       8       1       1       8       1       1       8       1
       1       8       1       1       8       1       1       8       1       1
       8       1       1       8       1       1       8       1       1       8
       1       1       8       1       1       8       1       1       8       1
       1       8       1       1       8       1       1       8       1       1
       8       1       1       8       1       1       8       1       1       8
       1       1       8       1       1       8       1       1       8       1
       1       8       1       1       8       1       1       8       1       1
       8       1       1       8       1       1       8       1       1       8
       1       1       8       1       1       8       1       1       8       1
       1       8       1       1       8       1       1       8       1       1
       8       1       1       8       1       1       8       1       1       8
       1       1       8       1       1       8       1       1       8       1
       1       8       1       1       8       1       1       8       1       1
       8       1       1       8       1       1       8       1       1       8
       1       1       8       1       1       8       1       1       8       1
       1       8       1       1       8       1       1       8       1       1
       8       1       1       8       1       1       8       1       1       8
       1       1       8       1       1       8       1       1       8       1
       1       8       1       1       8       1       1       8       1       1
       8       1       1       8       1       1       8       1       1       8
       1       1       8       1       1       8       1       1       8       1
       1       8       1       1       8       1       1       8       1       1
       8       1       1       8       1       1       8       1       1       8
       1       1       8       1       1       8       1       1       8       1
       1       8       1       1       8       1       1       8       1       1
       8       1       1       8       1       1       8       1       1       8
       1       1       8       1       1       8       1       1       8       1
       1       8       1       1       8       1       1       8       1       1
       8       1       1       8       1       1       8       1       1       8
       1       1       8       1       1       8       1       1       8       1
       1       8       1       1       8       1       1       8       1       1
       8       1       1       8       1       1       8       1       1       8
       1       1       8       1       1       8       1       1       8       1
       1       8       1       1       8       1       1       8       1       1
       8       1       1       8       1       1       8       1       1       8
       1       1       8       1       1       8       1       1       8       1
       1       8       1       1       8       1       1       8       1       1
       8       1       1       8       1       1       8       1       1       8
       1       1       8       1       1       8       1       1       8       1
       1       8       1       1       8       1       1       8       1       1
       8       1       1       8       1       1       8       1       1       8
       1       1       8       1       1       8       1       1       8       1
       1       8       1       1       8       1       1       8       1       1
       8       1       1       8       1       1       8       1       1       8
       1       1       8       1       1       8       1       1       8       1
       1       8       1       1       8       1       1       8       1       1
       8       1       1       8       1       1       8       1       1       8
       1       1       8       1       1       8       1       1       8       1
       1       8       1       1       8       1       1       8       1       1
       8       1       1       8       1       1       8       1       1       8
       1       1       8       1       1       8       1       1       8       1
       1       8       1       1       8       1       1       8       1       1
       8       1       1       8       1       1       8       1       1       8
       1       1       8       1       1       8       1       1       8       1
       1       8       1       1       8       1       1       8       1       1
       8       1       1       8       1       1       8       1       1       8
       1       1       8       1       1       8       1       1       8       1
       1       8       1       1       8       1       1       8       1       1
       8       1       1       8       1       1       8       1       1       8
       1       1       8       1       1       8       1       1       8       1
       1       8       1       1       8       1       1       8       1       1
       8       1       1       8       1       1       8       1       1       8
       1       1       8       1       1       8       1       1       8       1
       1       8       1       1       8       1       1       8       1       1
       8       1       1       8       1       1       8       1       1       8
       1       1       8       1       1       8       1       1       8       1
       1       8       1       1       8       1       1       8       1       1
       8       1       1       8       1       1       8       1       1       8
       1       1       8       1       1       8       1       1       8       1
       1       8       1       1       8       1       1       8       1       1
       8       1       1       8       1       1       8       1       1       8
       1       1       8       1       1       8       1       1       8       1
       1       8       1       1       8       1       1       8       1       1
       8       1       1       8       1       1       8       1       1       8
       1       1       8       1       1       8       1       1       8       1
       1       8       1       1       8       1       1       8       1       1
       8       1       1       8       1       1       8       1       1       8
       1       1       8       1       1       8       1       1       8       1
       1       8       1       1       8       1       1       8       1       1
       8       1       1       8       1       1       8       1       1       8
       1       1       8       1       1       8       1       1       8       1
       1       8       1       1       8       1       1       8       1       1
       8       1       1       8       1       1       8       1       1       8
       1       1       8       1       1       8       1       1       8       1
       1       8       1       1       8       1       1       8       1       1
       8       1       1       8       1       1       8       1       1       8
       1       1       8       1       1       8       1       1       8       1
       1       8       1       1       8       1       1       8       1       1
       8       1       1       8       1       1       8       1       1       8
       1       1       8       1       1       8       1       1       8       1
       1       8       1       1       8       1       1       8       1       1
       8       1       1       8       1       1       8       1       1       8
       1       1       8       1       1       8       1       1       8       1
       1       8       1       1       8       1       1       8       1       1
       8       1       1       8       1       1       8       1       1       8
       1       1       8       1       1       8       1       1       8       1
       1       8       1       1       8       1       1       8       1       1
       8       1       1       8       1       1       8       1       1       8
       1       1       8       1       1       8       1       1       8       1
       1       8       1       1       8       1       1       8       1       1
       8       1       1       8       1       1       8       1       1       8
       1       1       8       1       1       8       1       1       8       1
       1       8       1       1       8       1       1       8       1       1
       8       1       1       8       1       1       8       1       1       8
       1       1       8       1       1       8       1       1       8       1
       1       8       1       1       8       1       1       8       1       1
       8       1       1       8       1       1       8       1       1       8
       1       1       8       1       1       8       1       1       8       1
       1       8       1       1       8       1       1       8       1       1
       8       1       1       8       1       1       8       1       1       8
       1       1       8       1       1       8       1       1       8       1
       1       8       1       1       8       1       1       8       1       1
       8       1       1       8       1       1       8       1       1       8
       1       1       8       1       1       8       1       1       8       1
       1       8       1       1       8       1       1       8       1       1
       8       1       1       8       1       1       8       1       1       8
       1       1       8       1       1       8       1       1       8       1
       1       8       1       1       8       1       1       8       1       1
       8       1       1       8       1       1       8       1       1       8
       1       1       8       1       1       8       1       1       8       1
       1       8       1       1       8       1       1       8       1       1
       8       1       1       8       1       1       8       1       1       8
       1       1       8       1       1       8       1       1       8       1
       1       8       1       1       8       1       1       8       1       1
       8       1       1       8       1       1       8       1       1       8
       1       1       8       1       1       8       1       1       8       1
       1       8       1       1       8       1       1       8       1       1
       8       1       1       8       1       1       8       1       1       8
       1       1       8       1       1       8       1       1       8       1
       1       8       1       1       8       1       1       8       1       1
       8       1       1       8       1       1       8       1       1       8
       1       1       8       1       1       8       1       1       8       1
       1       8       1       1       8       1       1       8       1       1
       8       1       1       8       1       1       8       1       1       8
       1       1       8       1       1       8       1       1       8       1
       1       8       1       1       8       1       1       8       1       1
       8       1       1       8       1       1       8       1       1       8
       1       1       8       1       1       8       1       1       8       1
       1       8       1       1       8       1       1       8       1       1
       8       1       1       8       1       1       8       1       1       8
       1       1       8       1       1       8       1       1       8       1
       1       8       1       1       8       1       1       8       1       1
       8       1       1       8       1       1       8       1       1       8
       1       1       8       1       1       8       1       1       8       1
       1       8       1       1       8       1       1       8       1       1
       8       1       1       8       1       1       8       1       1       8
       1       1       8       1       1       8       1       1       8       1
       1       8       1       1       8       1       1       8       1       1
       8       1       1       8       1       1       8       1       1       8
       1       1       8       1       1       8       1       1       8       1
       1       8       1       1       8       1       1       8       1       1
       8       1       1       8       1       1       8       1       1       8
       1       1       8       1       1       8       1       1       8       1
       1       8       1       1       8       1       1       8       1       1
       8       1       1       8       1       1       8       1       1       8
       1       1       8       1       1       8       1       1       8       1
       1       8       1       1       8       1       1       8       1       1
       8       1       1       8       1       1       8       1       1       8
       1       1       8       1       1       8       1       1       8       1
       1       8       1       1       8       1       1       8       1       1
       8       1       1       8       1       1       8       1       1       8
       1       1       8       1       1       8       1       1       8       1
       1       8       1       1       8       1       1       8       1       1
       8       1       1       8       1       1       8       1       1       8
       1       1       8       1       1       8       1       1       8       1
       1       8       1       1       8       1       1       8       1       1
       8       1       1       8       1       1       8       1       1       8
       1       1       8       1       1       8       1       1       8       1
       1       8       1       1       8       1       1       8       1       1
       8       1       1       8       1       1       8       1       1       8
       1       1       8       1       1       8       1       1       8       1
       1       8       1       1       8       1       1       8       1       1
       8       1       1       8       1       1       8       1       1       8
       1       1       8       1       1       8       1       1       8       1
       1       8       1       1       8       1       1       8       1       1
       8       1       1       8       1       1       8       1       1       8
       1       1       8       1       1       8       1       1       8       1
       1       8       1       1       8       1       1       8       1       1
       8       1       1       8       1       1       8       1       1       8
       1       1       8       1       1       8       1       1       8       1
       1       8       1       1       8       1       1       8       1       1
       8       1       1       8       1       1       8       1       1       8
       1       1       8       1       1       8       1       1       8       1
       1       8       1       1       8       1       1       8       1       1
       8       1       1       8       1       1       8       1       1       8
       1       1       8       1       1       8       1       1       8       1
       1       8       1       1       8       1       1       8       1       1
       8       1       1       8       1       1       8       1       1       8
       1       1       8       1       1       8       1       1       8       1
       1       8       1       1       8       1       1       8       1       1
       8       1       1       8       1       1       8       1       1       8
       1       1       8       1       1       8       1       1       8       1
       1       8       1       1       8       1       1       8       1       1
       8       1       1       8       1       1       8       1       1       8
       1       1       8       1       1       8       1       1       8       1
       1       8       1       1       8       1       1       8       1       1
       8       1       1       8       1       1       8       1       1       8
       1       1       8       1       1       8       1       1       8       1
       1       8       1       1       8       1       1       8       1       1
       8       1       1       8       1       1       8       1       1       8
       1       1       8       1       1       8       1       1       8       1
       1       8       1       1       8       1       1       8       1       1
       8       1       1       8       1       1       8       1       1       8
       1       1       8       1       1       8       1       1       8       1
       1       8       1       1       8       1       1       8       1       1
       8       1       1       8       1       1       8       1       1       8
       1       1       8       1       1       8       1       1       8       1
       1       8       1       1       8       1       1       8       1       1
       8       1       1       8       1       1       8       1       1       8
       1       1       8       1       1       8       1       1       8       1
       1       8       1       1       8       1       1       8       1       1
       8       1       1       8       1       1       8       1       1       8
       1       1       8       1       1       8       1       1       8       1
       1       8       1       1       8       1       1       8       1       1
       8       1       1       8       1       1       8       1       1       8
       1       1       8       1       1       8       1       1       8       1
       1       8       1       1       8       1       1       8       1       1
       8       1       1       8       1       1       8       1       1       8
       1       1       8       1       1       8       1       1       8       1
       1       8       1       1       8       1       1       8       1       1
       8       1       1       8       1       1       8       1       1       8
       1       1       8       1       1       8       1       1       8       1
       1       8       1       1       8       1       1       8       1       1
       8       1       1       8       1       1       8       1       1       8
       1       1       8       1       1       8       1       1       8       1
       1       8       1       1       8       1       1       8       1       1
       8       1       1       8       1       1       8       1       1       8
       1       1       8       1       1       8       1       1       8       1
       1       8       1       1       8       1       1       8       1       1
       8       1       1       8       1       1       8       1       1       8
       1       1       8       1       1       8       1       1       8       1
       1       8       1       1       8       1       1       8       1       1
       8       1       1       8       1       1       8       1       1       8
       1       1       8       1       1       8       1       1       8       1
       1       8       1       1       8       1       1       8       1       1
       8       1       1       8       1       1       8       1       1       8
       1       1       8       1       1       8       1       1       8       1
       1       8       1       1       8       1       1       8       1       1
       8       1       1       8       1       1       8       1       1       8
       1       1       8       1       1       8       1       1       8       1
       1       8       1       1       8       1       1       8       1       1
       8       1       1       8       1       1       8       1       1       8
       1       1       8       1       1       8       1       1       8       1
       1       8       1       1       8       1       1       8       1       1
       8       1       1       8       1       1       8       1       1       8
       1       1       8       1       1       8       1       1       8       1
       1       8       1       1       8       1       1       8       1       1
       8       1       1       8       1       1       8       1       1       8
       1       1       8       1       1       8       1       1       8       1
       1       8       1       1       8       1       1       8       1       1
       8       1       1       8       1       1       8       1       1       8
       1       1       8       1       1       8       1       1       8       1
       1       8       1       1       8       1       1       8       1       1
       8       1       1       8       1       1       8       1       1       8
       1       1       8       1       1       8       1       1       8       1
       1       8       1       1       8       1       1       8       1       1
       8       1       1       8       1       1       8       1       1       8
       1       1       8       1       1       8       1       1       8       1
       1       8       1       1       8       1       1       8       1       1
       8       1       1       8       1       1       8       1       1       8
       1       1       8       1       1       8       1       1       8       1
       1       8       1       1       8       1       1       8       1       1
       8       1       1       8       1       1       8       1       1       8
       1       1       8       1       1       8       1       1       8       1
       1       8       1       1       8       1       1       8       1       1
       8       1       1       8       1       1       8       1       1       8
       1       1       8       1       1       8       1       1       8       1
       1       8       1       1       8       1       1       8       1       1
       8       1       1       8       1       1       8       1       1       8
       1       1       8       1       1       8       1       1       8       1
       1       8       1       1       8       1       1       8       1       1
       8       1       1       8       1       1       8       1       1       8
       1       1       8       1       1       8       1       1       8       1
       1       8       1       1       8       1       1       8       1       1
       8       1       1       8       1       1       8       1       1       8
       1       1       8       1       1       8       1       1       8       1
       1       8       1       1       8       1       1       8       1       1
       8       1       1       8       1       1       8       1       1       8
       1       1       8       1       1       8       1       1       8       1
       1       8       1       1       8       1       1       8       1       1
       8       1       1       8       1       1       8       1       1       8
       1       1       8       1       1       8       1       1       8       1
       1       8       1       1       8       1       1       8       1       1
       8       1       1       8       1       1       8       1       1       8
       1       1       8       1       1       8       1       1       8       1
       1       8       1       1       8       1       1       8       1       1
       8       1       1       8       1       1       8       1       1       8
       1       1       8       1       1       8       1       1       8       1
       1       8       1       1       8       1       1       8       1       1
       8       1       1       8       1       1       8       1       1       8
       1       1       8       1       1       8       1       1       8       1
       1       8       1       1       8       1       1       8       1       1
       8       1       1       8       1       1       8       1       1       8
       1       1       8       1       1       8       1       1       8       1
       1       8       1       1       8       1       1       8       1       1
       8       1       1       8       1       1       8       1       1       8
       1       1       8       1       1       8       1       1       8       1
       1       8       1       1       8       1       1       8       1       1
       8       1       1       8       1       1       8       1       1       8
       1       1       8       1       1       8       1       1       8       1
       1       8       1       1       8       1       1       8       1       1
       8       1       1       8       1       1       8       1       1       8
       1       1       8       1       1       8       1       1       8       1
       1       8       1       1       8       1       1       8       1       1
       8       1       1       8       1       1       8       1       1       8
       1       1       8       1       1       8       1       1       8       1
       1       8       1       1       8       1       1       8       1       1
       8       1       1       8       1       1       8       1       1       8
       1       1       8       1       1       8       1       1       8       1
       1       8       1       1       8       1       1       8       1       1
       8       1       1       8       1       1       8       1       1       8
       1       1       8       1       1       8       1       1       8       1
       1       8       1       1       8       1       1       8       1       1
       8       1       1       8       1       1       8       1       1       8
       1       1       8       1       1       8       1       1       8       1
       1       8       1       1       8       1       1       8       1       1
       8       1       1       8       1       1       8       1       1       8
       1       1       8       1       1       8       1       1       8       1
       1       8       1       1       8       1       1       8       1       1
       8       1       1       8       1       1       8       1       1       8
       1       1       8       1       1       8       1       1       8       1
       1       8       1       1       8       1       1       8       1       1
       8       1       1       8       1       1       8       1       1       8
       1       1       8       1       1       8       1       1       8       1
       1       8       1       1       8       1       1       8       1       1
       8       1       1       8       1       1       8       1       1       8
       1       1       8       1       1       8       1       1       8       1
       1       8       1       1       8       1       1       8       1       1
       8       1       1       8       1       1       8       1       1       8
       1       1       8       1       1       8       1       1       8       1
       1       8       1       1       8       1       1       8       1       1
       8       1       1       8       1       1       8       1       1       8
       1       1       8       1       1       8       1       1       8       1
       1       8       1       1       8       1       1       8       1       1
       8       1       1       8       1       1       8       1       1       8
       1       1       8       1       1       8       1       1       8       1
       1       8       1       1       8       1       1       8       1       1
       8       1       1       8       1       1       8       1       1       8
       1       1       8       1       1       8       1       1       8       1
       1       8       1       1       8       1       1       8       1       1
       8       1       1       8       1       1       8       1       1       8
       1       1       8       1       1       8       1       1       8       1
       1       8       1       1       8       1       1       8       1       1
       8       1       1       8       1       1       8       1       1       8
       1       1       8       1       1       8       1       1       8       1
       1       8       1       1       8       1       1       8       1       1
       8       1       1       8       1       1       8       1       1       8
       1       1       8       1       1       8       1       1       8       1
       1       8       1       1       8       1       1       8       1       1
       8       1       1       8       1       1       8       1       1       8
       1       1       8       1       1       8       1       1       8       1
       1       8       1       1       8       1       1       8       1       1
       8       1       1       8       1       1       8       1       1       8
       1       1       8       1       1       8       1       1       8       1
       1       8       1       1       8       1       1       8       1       1
       8       1       1       8       1       1       8       1       1       8
       1       1       8       1       1       8       1       1       8       1
       1       8       1       1       8       1       1       8       1       1
       8       1       1       8       1       1       8       1       1       8
       1       1       8       1       1       8       1       1       8       1
       1       8       1       1       8       1       1       8       1       1
       8       1       1       8       1       1       8       1       1       8
       1       1       8       1       1       8       1       1       8       1
       1       8       1       1       8       1       1       8       1       1
       8       1       1       8       1       1       8       1       1       8
       1       1       8       1       1       8       1       1       8       1
       1       8       1       1       8       1       1       8       1       1
       8       1       1       8       1       1       8       1       1       8
       1       1       8       1       1       8       1       1       8       1
       1       8       1       1       8       1       1       8       1       1
       8       1       1       8       1       1       8       1       1       8
       1       1       8       1       1       8       1       1       8       1
       1       8       1       1       8       1       1       8       1       1
       8       1       1       8       1       1       8       1       1       8
       1       1       8       1       1       8       1       1       8       1
       1       8       1       1       8       1       1       8       1       1
       8       1       1       8       1       1       8       1       1       8
       1       1       8       1       1       8       1       1       8       1
       1       8       1       1       8       1       1       8       1       1
       8       1       1       8       1       1       8       1       1       8
       1       1       8       1       1       8       1       1       8       1
       1       8       1       1       8       1       1       8       1       1
       8       1       1       8       1       1       8       1       1       8
       1       1       8       1       1       8       1       1       8       1
       1       8       1       1       8       1       1       8       1       1
       8       1       1       8       1       1       8       1       1       8
       1       1       8       1       1       8       1       1       8       1
       1       8       1       1       8       1       1       8       1       1
       8       1       1       8       1       1       8       1       1       8
       1       1       8       1       1       8       1       1       8       1
       1       8       1       1       8       1       1       8       1       1
       8       1       1       8       1       1       8       1       1       8
       1       1       8       1       1       8       1       1       8       1
       1       8       1       1       8       1       1       8       1       1
       8       1       1       8       1       1       8       1       1       8
       1       1       8       1       1       8       1       1       8       1
       1       8       1       1       8       1       1       8       1       1
       8       1       1       8       1       1       8       1       1       8
       1       1       8       1       1       8       1       1       8       1
       1       8       1       1       8       1       1       8       1       1
       8       1       1       8       1       1       8       1       1       8
       1       1       8       1       1       8       1       1       8       1
       1       8       1       1       8       1       1       8       1       1
       8       1       1       8       1       1       8       1       1       8
       1       1       8       1       1       8       1       1       8       1
       1       8       1       1       8       1       1       8       1       1
       8       1       1       8       1       1       8       1       1       8
       1       1       8       1       1       8       1       1       8       1
       1       8       1       1       8       1       1       8       1       1
       8       1       1       8       1       1       8       1       1       8
       1       1       8       1       1       8       1       1       8       1
       1       8       1       1       8       1       1       8       1       1
       8       1       1       8       1       1       8       1       1       8
       1       1       8       1       1       8       1       1       8       1
       1       8       1       1       8       1       1       8       1       1
       8       1       1       8       1       1       8       1       1       8
       1       1       8       1       1       8       1       1       8       1
       1       8       1       1       8       1       1       8       1       1
       8       1       1       8       1       1       8       1       1       8
       1       1       8       1       1       8       1       1       8       1
       1       8       1       1       8       1       1       8       1       1
       8       1       1       8       1       1       8       1       1       8
       1       1       8       1       1       8       1       1       8       1
       1       8       1       1       8       1       1       8       1       1
       8       1       1       8       1       1       8       1       1       8
       1       1       8       1       1       8       1       1       8       1
       1       8       1       1       8       1       1       8       1       1
       8       1       1       8       1       1       8       1       1       8
       1       1       8       1       1       8       1       1       8       1
       1       8       1       1       8       1       1       8       1       1
       8       1       1       8       1       1       8       1       1       8
       1       1       8       1       1       8       1       1       8       1
       1       8       1       1       8       1       1       8       1       1
       8       1       1       8       1       1       8       1       1       8
       1       1       8       1       1       8       1       1       8       1
       1       8       1       1       8       1       1       8       1       1
       8       1       1       8       1       1       8       1       1       8
       1       1       8       1       1       8       1       1       8       1
       1       8       1       1       8       1       1       8       1       1
       8       1       1       8       1       1       8       1       1       8
       1       1       8       1       1       8       1       1       8       1
       1       8       1       1       8       1       1       8       1       1
       8       1       1       8       1       1       8       1       1       8
       1       1       8       1       1       8       1       1       8       1
       1       8       1       1       8       1       1       8       1       1
       8       1       1       8       1       1       8       1       1       8
       1       1       8       1       1       8       1       1       8       1
       1       8       1       1       8       1       1       8       1       1
       8       1       1       8       1       1       8       1       1       8
       1       1       8       1       1       8       1       1       8       1
       1       8       1       1       8       1       1       8       1       1
       8       1       1       8       1       1       8       1       1       8
       1       1       8       1       1       8       1       1       8       1
       1       8       1       1       8       1       1       8       1       1
       8       1       1       8       1       1       8       1       1       8
       1       1       8       1       1       8       1       1       8       1
       1       8       1       1       8       1       1       8       1       1
       8       1       1       8       1       1       8       1       1       8
       1       1       8       1       1       8       1       1       8       1
       1       8       1       1       8       1       1       8       1       1
       8       1       1       8       1       1       8       1       1       8
       1       1       8       1       1       8       1       1       8       1
       1       8       1       1       8       1       1       8       1       1
       8       1       1       8       1       1       8       1       1       8
       1       1       8       1       1       8       1       1       8       1
       1       8       1       1       8       1       1       8       1       1
       8       1       1       8       1       1       8       1       1       8
       1       1       8       1       1       8       1       1       8       1
       1       8       1       1       8       1       1       8       1       1
       8       1       1       8       1       1       8       1       1       8
       1       1       8       1       1       8       1       1       8       1
       1       8       1       1       8       1       1       8       1       1
       8       1       1       8       1       1       8       1       1       8
       1       1       8       1       1       8       1       1       8       1
       1       8       1       1       8       1       1       8       1       1
       8       1       1       8       1       1       8       1       1       8
       1       1       8       1       1       8       1       1       8       1
       1       8       1       1       8       1       1       8       1       1
       8       1       1       8       1       1       8       1       1       8
       1       1       8       1       1       8       1       1       8       1
       1       8       1       1       8       1       1       8       1       1
       8       1       1       8       1       1       8       1       1       8
       1       1       8       1       1       8       1       1       8       1
       1       8       1       1       8       1       1       8       1       1
       8       1       1       8       1       1       8       1       1       8
       1       1       8       1       1       8       1       1       8       1
       1       8       1       1       8       1       1       8       1       1
       8       1       1       8       1       1       8       1       1       8
       1       1       8       1       1       8       1       1       8       1
       1       8       1       1       8       1       1       8       1       1
       8       1       1       8       1       1       8       1       1       8
       1       1       8       1       1       8       1       1       8       1
       1       8       1       1       8       1       1       8       1       1
       8       1       1       8       1       1       8       1       1       8
       1       1       8       1       1       8       1       1       8       1
       1       8       1       1       8       1       1       8       1       1
       8       1       1       8       1       1       8       1       1       8
       1       1       8       1       1       8       1       1       8       1
       1       8       1       1       8       1       1       8       1       1
       8       1       1       8       1       1       8       1       1       8
       1       1       8       1       1       8       1       1       8       1
       1       8       1       1       8       1       1       8       1       1
       8       1       1       8       1       1       8       1       1       8
       1       1       8       1       1       8       1       1       8       1
       1       8       1       1       8       1       1       8       1       1
       8       1       1       8       1       1       8       1       1       8
       1       1       8       1       1       8       1       1       8       1
       1       8       1       1       8       1       1       8       1       1
       8       1       1       8       1       1       8       1       1       8
       1       1       8       1       1       8       1       1       8       1
       1       8       1       1       8       1       1       8       1       1
       8       1       1       8       1       1       8       1       1       8
       1       1       8       1       1       8       1       1       8       1
       1       8       1       1       8       1       1       8       1       1
       8       1       1       8       1       1       8       1       1       8
       1       1       8       1       1       8       1       1       8       1
       1       8       1       1       8       1       1       8       1       1
       8       1       1       8       1       1       8       1       1       8
       1       1       8       1       1       8       1       1       8       1
       1       8       1       1       8       1       1       8       1       1
       8       1       1       8       1       1       8       1       1       8
       1       1       8       1       1       8       1       1       8       1
       1       8       1       1       8       1       1       8       1       1
       8       1       1       8       1       1       8       1       1       8
       1       1       8       1       1       8       1       1       8       1
       1       8       1       1       8       1       1       8       1       1
       8       1       1       8       1       1       8       1       1       8
       1       1       8       1       1       8       1       1       8       1
       1       8       1       1       8       1       1       8       1       1
       8       1       1       8       1       1       8       1       1       8
       1       1       8       1       1       8       1       1       8       1
       1       8       1       1       8       1       1       8       1       1
       8       1       1       8       1       1       8       1       1       8
       1       1       8       1       1       8       1       1       8       1
       1       8       1       1       8       1       1       8       1       1
       8       1       1       8       1       1       8       1       1       8
       1       1       8       1       1       8       1       1       8       1
       1       8       1       1       8       1       1       8       1       1
       8       1       1       8       1       1       8       1       1       8
       1       1       8       1       1       8       1       1       8       1
       1       8       1       1       8       1       1       8       1       1
       8       1       1       8       1       1       8       1       1       8
       1       1       8       1       1       8       1       1       8       1
       1       8       1       1       8       1       1       8       1       1
       8       1       1       8       1       1       8       1       1       8
       1       1       8       1       1       8       1       1       8       1
       1       8       1       1       8       1       1       8       1       1
       8       1       1       8       1       1       8       1       1       8
       1       1       8       1       1       8       1       1       8       1
       1       8       1       1       8       1       1       8       1       1
       8       1       1       8       1       1       8       1       1       8
       1       1       8       1       1       8       1       1       8       1
       1       8       1       1       8       1       1       8       1       1
       8       1       1       8       1       1       8       1       1       8
       1       1       8       1       1       8       1       1       8       1
       1       8       1       1       8       1       1       8       1       1
       8       1       1       8       1       1       8       1       1       8
       1       1       8       1       1       8       1       1       8       1
       1       8       1       1       8       1       1       8       1       1
       8       1       1       8       1       1       8       1       1       8
       1       1       8       1       1       8       1       1       8       1
       1       8       1       1       8       1       1       8       1       1
       8       1       1       8       1       1       8       1       1       8
       1       1       8       1       1       8       1       1       8       1
       1       8       1       1       8       1       1       8       1       1
       8       1       1       8       1       1       8       1       1       8
       1       1       8       1       1       8       1       1       8       1
       1       8       1       1       8       1       1       8       1       1
       8       1       1       8       1       1       8       1       1       8
       1       1       8       1       1       8       1       1       8       1
       1       8       1       1       8       1       1       8       1       1
       8       1       1       8       1       1       8       1       1       8
       1       1       8       1       1       8       1       1       8       1
       1       8       1       1       8       1       1       8       1       1
       8       1       1       8       1       1       8       1       1       8
       1       1       8       1       1       8       1       1       8       1
       1       8       1       1       8       1       1       8       1       1
       8       1       1       8       1       1       8       1       1       8
       1       1       8       1       1       8       1       1       8       1
       1       8       1       1       8       1       1       8       1       1
       8       1       1       8       1       1       8       1       1       8
       1       1       8       1       1       8       1       1       8       1
       1       8       1       1       8       1       1       8       1       1
       8       1       1       8       1       1       8       1       1       8
       1       1       8       1       1       8       1       1       8       1
       1       8       1       1       8       1       1       8       1       1
       8       1       1       8       1       1       8       1       1       8
       1       1       8       1       1       8       1       1       8       1
       1       8       1       1       8       1       1       8       1       1
       8       1       1       8       1       1       8       1       1       8
       1       1       8       1       1       8       1       1       8       1
       1       8       1       1       8       1       1       8       1       1
       8       1       1       8       1       1       8       1       1       8
       1       1       8       1       1       8       1       1       8       1
       1       8       1       1       8       1       1       8       1       1
       8       1       1       8       1       1       8       1       1       8
       1       1       8       1       1       8       1       1       8       1
       1       8       1       1       8       1       1       8       1       1
       8       1       1       8       1       1       8       1       1       8
       1       1       8       1       1       8       1       1       8       1
       1       8       1       1       8       1       1       8       1       1
       8       1       1       8       1       1       8       1       1       8
       1       1       8       1       1       8       1       1       8       1
       1       8       1       1       8       1       1       8       1       1
       8       1       1       8       1       1       8       1       1       8
       1       1       8       1       1       8       1       1       8       1
       1       8       1       1       8       1       1       8       1       1
       8       1       1       8       1       1       8       1       1       8
       1       1       8       1       1       8       1       1       8       1
       1       8       1       1       8       1       1       8       1       1
       8       1       1       8       1       1       8       1       1       8
       1       1       8       1       1       8       1       1       8       1
       1       8       1       1       8       1       1       8       1       1
       8       1       1       8       1       1       8       1       1       8
       1       1       8       1       1       8       1       1       8       1
       1       8       1       1       8       1       1       8       1       1
       8       1       1       8       1       1       8       1       1       8
       1       1       8       1       1       8       1       1       8       1
       1       8       1       1       8       1       1       8       1       1
       8       1       1       8       1       1       8       1       1       8
       1       1       8       1       1       8       1       1       8       1
       1       8       1       1       8       1       1       8       1       1
       8       1       1       8       1       1       8       1       1       8
       1       1       8       1       1       8       1       1       8       1
       1       8       1       1       8       1       1       8       1       1
       8       1       1       8       1       1       8       1       1       8
       1       1       8       1       1       8       1       1       8       1
       1       8       1       1       8       1       1       8       1       1
       8       1       1       8       1       1       8       1       1       8
       1       1       8       1       1       8       1       1       8       1
       1       8       1       1       8       1       1       8       1       1
       8       1       1       8       1       1       8       1       1       8
       1       1       8       1       1       8       1       1       8       1
       1       8       1       1       8       1       1       8       1       1
       8       1       1       8       1       1       8       1       1       8
       1       1       8       1       1       8       1       1       8       1
       1       8       1       1       8       1       1       8       1       1
       8       1       1       8       1       1       8       1       1       8
       1       1       8       1       1       8       1       1       8       1
       1       8       1       1       8       1       1       8       1       1
       8       1       1       8       1       1       8       1       1       8
       1       1       8       1       1       8       1       1       8       1
       1       8       1       1       8       1       1       8       1       1
       8       1       1       8       1       1       8       1       1       8
       1       1       8       1       1       8       1       1       8       1
       1       8       1       1       8       1       1       8       1       1
       8       1       1       8       1       1       8       1       1       8
       1       1       8       1       1       8       1       1       8       1
       1       8       1       1       8       1       1       8       1       1
       8       1       1       8       1       1       8       1       1       8
       1       1       8       1       1       8       1       1       8       1
       1       8       1       1       8       1       1       8       1       1
       8       1       1       8       1       1       8       1       1       8
       1       1       8       1       1       8       1       1       8       1
       1       8       1       1       8       1       1       8       1       1
       8       1       1       8       1       1       8       1       1       8
       1       1       8       1       1       8       1       1       8       1
       1       8       1       1       8       1       1       8       1       1
       8       1       1       8       1       1       8       1       1       8
       1       1       8       1       1       8       1       1       8       1
       1       8       1       1       8       1       1       8       1       1
       8       1       1       8       1       1       8       1       1       8
       1       1       8       1       1       8       1       1       8       1
       1       8       1       1       8       1       1       8       1       1
       8       1       1       8       1       1       8       1       1       8
       1       1       8       1       1       8       1       1       8       1
       1       8       1       1       8       1       1       8       1       1
       8       1       1       8       1       1       8       1       1       8
       1       1       8       1       1       8       1       1       8       1
       1       8       1       1       8       1       1       8       1       1
       8       1       1       8       1       1       8       1       1       8
       1       1       8       1       1       8       1       1       8       1
       1       8       1       1       8       1       1       8       1       1
       8       1       1       8       1       1       8       1       1       8
       1       1       8       1       1       8       1       1       8       1
       1       8       1       1       8       1       1       8       1       1
       8       1       1       8       1       1       8       1       1       8
       1       1       8       1       1       8       1       1       8       1
       1       8       1       1       8       1       1       8       1       1
       8       1       1       8       1       1       8       1       1       8
       1       1       8       1       1       8       1       1       8       1
       1       8       1       1       8       1       1       8       1       1
       8       1       1       8       1       1       8       1       1       8
       1       1       8       1       1       8       1       1       8       1
       1       8       1       1       8       1       1       8       1       1
       8       1       1       8       1       1       8       1       1       8
       1       1       8       1       1       8       1       1       8       1
       1       8       1       1       8       1       1       8       1       1
       8       1       1       8       1       1       8       1       1       8
       1       1       8       1       1       8       1       1       8       1
       1       8       1       1       8       1       1       8       1       1
       8       1       1       8       1       1       8       1       1       8
       1       1       8       1       1       8       1       1       8       1
       1       8       1       1       8       1       1       8       1       1
       8       1       1       8       1       1       8       1       1       8
       1       1       8       1       1       8       1       1       8       1
       1       8       1       1       8       1       1       8       1       1
       8       1       1       8       1       1       8       1       1       8
       1       1       8       1       1       8       1       1       8       1
       1       8       1       1       8       1       1       8       1       1
       8       1       1       8       1       1       8       1       1       8
       1       1       8       1       1       8       1       1       8       1
       1       8       1       1       8       1       1       8       1       1
       8       1       1       8       1       1       8       1       1       8
       1       1       8       1       1       8       1       1       8       1
       1       8       1       1       8       1       1       8       1       1
       8       1       1       8       1       1       8       1       1       8
       1       1       8       1       1       8       1       1       8       1
       1       8       1       1       8       1       1       8       1       1
       8       1       1       8       1       1       8       1       1       8
       1       1       8       1       1       8       1       1       8       1
       1       8       1       1       8       1       1       8       1       1
       8       1       1       8       1       1       8       1       1       8
       1       1       8       1       1       8       1       1       8       1
       1       8       1       1       8       1       1       8       1       1
       8       1       1       8       1       1       8       1       1       8
       1       1       8       1       1       8       1       1       8       1
       1       8       1       1       8       1       1       8       1       1
       8       1       1       8       1       1       8       1       1       8
       1       1       8       1       1       8       1       1       8       1
       1       8       1       1       8       1       1       8       1       1
       8       1       1       8       1       1       8       1       1       8
       1       1       8       1       1       8       1       1       8       1
       1       8       1       1       8       1       1       8       1       1
       8       1       1       8       1       1       8       1       1       8
       1       1       8       1       1       8       1       1       8       1
       1       8       1       1       8       1       1       8       1       1
       8       1       1       8       1       1       8       1       1       8
       1       1       8       1       1       8       1       1       8       1
       1       8       1       1       8       1       1       8       1       1
       8       1       1       8       1       1       8       1       1       8
       1       1       8       1       1       8       1       1       8       1
       1       8       1       1       8       1       1       8       1       1
       8       1       1       8       1       1       8       1       1       8
       1       1       8       1       1       8       1       1       8       1
       1       8       1       1       8       1       1       8       1       1
       8       1       1       8       1       1       8       1       1       8
       1       1       8       1       1       8       1       1       8       1
       1       8       1       1       8       1       1       8       1       1
       8       1       1       8       1       1       8       1       1       8
       1       1       8       1       1       8       1       1       8       1
       1       8       1       1       8       1       1       8       1       1
       8       1       1       8       1       1       8       1       1       8
       1       1       8       1       1       8       1       1       8       1
       1       8       1       1       8       1       1       8       1       1
       8       1       1       8       1       1       8       1       1       8
       1       1       8       1       1       8       1       1       8       1
       1       8       1       1       8       1       1       8       1       1
       8       1       1       8       1       1       8       1       1       8
       1       1       8       1       1       8       1       1       8       1
       1       8       1       1       8       1       1       8       1       1
       8       1       1       8       1       1       8       1       1       8
       1       1       8       1       1       8       1       1       8       1
       1       8       1       1       8       1       1       8       1       1
       8       1       1       8       1       1       8       1       1       8
       1       1       8       1       1       8       1       1       8       1
       1       8       1       1       8       1       1       8       1       1
       8       1       1       8       1       1       8       1       1       8
       1       1       8       1       1       8       1       1       8       1
       1       8       1       1       8       1       1       8       1       1
       8       1       1       8       1       1       8       1       1       8
       1       1       8       1       1       8       1       1       8       1
       1       8       1       1       8       1       1       8       1       1
       8       1       1       8       1       1       8       1       1       8
       1       1       8       1       1       8       1       1       8       1
       1       8       1       1       8       1       1       8       1       1
       8       1       1       8       1       1       8       1       1       8
       1       1       8       1       1       8       1       1       8       1
       1       8       1       1       8       1       1       8       1       1
       8       1       1       8       1       1       8       1       1       8
       1       1       8       1       1       8       1       1       8       1
       1       8       1       1       8       1       1       8       1       1
       8       1       1       8       1       1       8       1       1       8
       1       1       8       1       1       8       1       1       8       1
       1       8       1       1       8       1       1       8       1       1
       8       1       1       8       1       1       8       1       1       8
       1       1       8       1       1       8       1       1       8       1
       1       8       1       1       8       1       1       8       1       1
       8       1       1       8       1       1       8       1       1       8
       1       1       8       1       1       8       1       1       8       1
       1       8       1       1       8       1       1       8       1       1
       8       1       1       8       1       1       8       1       1       8
       1       1       8       1       1       8       1       1       8       1
       1       8       1       1       8       1       1       8       1       1
       8       1       1       8       1       1       8       1       1       8
       1       1       8       1       1       8       1       1       8       1
       1       8       1       1       8       1       1       8       1       1
       8       1       1       8       1       1       8       1       1       8
       1       1       8       1       1       8       1       1       8       1
       1       8       1       1       8       1       1       8       1       1
       8       1       1       8       1       1       8       1       1       8
       1       1       8       1       1       8       1       1       8       1
       1       8       1       1       8       1       1       8       1       1
       8       1       1       8       1       1       8       1       1       8
       1       1       8       1       1       8       1       1       8       1
       1       8       1       1       8       1       1       8       1       1
       8       1       1       8       1       1       8       1       1       8
       1       1       8       1       1       8       1       1       8       1
       1       8       1       1       8       1       1       8       1       1
       8       1       1       8       1       1       8       1       1       8
       1       1       8       1       1       8       1       1       8       1
       1       8       1       1       8       1       1       8       1       1
       8       1       1       8       1       1       8       1       1       8
       1       1       8       1       1       8       1       1       8       1
       1       8       1       1       8       1       1       8       1       1
       8       1       1       8       1       1       8       1       1       8
       1       1       8       1       1       8       1       1       8       1
       1       8       1       1       8       1       1       8       1       1
       8       1       1       8       1       1       8       1       1       8
       1       1       8       1       1       8       1       1       8       1
       1       8       1       1       8       1       1       8       1       1
       8       1       1       8       1       1       8       1       1       8
       1       1       8       1       1       8       1       1       8       1
       1       8       1       1       8       1       1       8       1       1
       8       1       1       8       1       1       8       1       1       8
       1       1       8       1       1       8       1       1       8       1
       1       8       1       1       8       1       1       8       1       1
       8       1       1       8       1       1       8       1       1       8
       1       1       8       1       1       8       1       1       8       1
       1       8       1       1       8       1       1       8       1       1
       8       1       1       8       1       1       8       1       1       8
       1       1       8       1       1       8       1       1       8       1
       1       8       1       1       8       1       1       8       1       1
       8       1       1       8       1       1       8       1       1       8
       1       1       8       1       1       8       1       1       8       1
       1       8       1       1       8       1       1       8       1       1
       8       1       1       8       1       1       8       1       1       8
       1       1       8       1       1       8       1       1       8       1
       1       8       1       1       8       1       1       8       1       1
       8       1       1       8       1       1       8       1       1       8
       1       1       8       1       1       8       1       1       8       1
       1       8       1       1       8       1       1       8       1       1
       8       1       1       8       1       1       8       1       1       8
       1       1       8       1       1       8       1       1       8       1
       1       8       1       1       8       1       1       8       1       1
       8       1       1       8       1       1       8       1       1       8
       1       1       8       1       1       8       1       1       8       1
       1       8       1       1       8       1       1       8       1       1
       8       1       1       8       1       1       8       1       1       8
       1       1       8       1       1       8       1       1       8       1
       1       8       1       1       8       1       1       8       1       1
       8       1       1       8       1       1       8       1       1       8
       1       1       8       1       1       8       1       1       8       1
       1       8       1       1       8       1       1       8       1       1
       8       1       1       8       1       1       8       1       1       8
       1       1       8       1       1       8       1       1       8       1
       1       8       1       1       8       1       1       8       1       1
       8       1       1       8       1       1       8       1       1       8
       1       1       8       1       1       8       1       1       8       1
       1       8       1       1       8       1       1       8       1       1
       8       1       1       8       1       1       8       1       1       8
       1       1       8       1       1       8       1       1       8       1
       1       8       1       1       8       1       1       8       1       1
       8       1       1       8       1       1       8       1       1       8
       1       1       8       1       1       8       1       1       8       1
       1       8       1       1       8       1       1       8       1       1
       8       1       1       8       1       1       8       1       1       8
       1       1       8       1       1       8       1       1       8       1
       1       8       1       1       8       1       1       8       1       1
       8       1       1       8       1       1       8       1       1       8
       1       1       8       1       1       8       1       1       8       1
       1       8       1       1       8       1       1       8       1       1
       8       1       1       8       1       1       8       1       1       8
       1       1       8       1       1       8       1       1       8       1
       1       8       1       1       8       1       1       8       1       1
       8       1       1       8       1       1       8       1       1       8
       1       1       8       1       1       8       1       1       8       1
       1       8       1       1       8       1       1       8       1       1
       8       1       1       8       1       1       8       1       1       8
       1       1       8       1       1       8       1       1       8       1
       1       8       1       1       8       1       1       8       1       1
       8       1       1       8       1       1       8       1       1       8
       1       1       8       1       1       8       1       1       8       1
       1       8       1       1       8       1       1       8       1       1
       8       1       1       8       1       1       8       1       1       8
       1       1       8       1       1       8       1       1       8       1
       1       8       1       1       8       1       1       8       1       1
       8       1       1       8       1       1       8       1       1       8
       1       1       8       1       1       8       1       1       8       1
       1       8       1       1       8       1       1       8       1       1
       8       1       1       8       1       1       8       1       1       8
       1       1       8       1       1       8       1       1       8       1
       1       8       1       1       8       1       1       8       1       1
       8       1       1       8       1       1       8       1       1       8
       1       1       8       1       1       8       1       1       8       1
       1       8       1       1       8       1       1       8       1       1
       8       1       1       8       1       1       8       1       1       8
       1       1       8       1       1       8       1       1       8       1
       1       8       1       1       8       1       1       8       1       1
       8       1       1       8       1       1       8       1       1       8
       1       1       8       1       1       8       1       1       8       1
       1       8       1       1       8       1       1       8       1       1
       8       1       1       8       1       1       8       1       1       8
       1       1       8       1       1       8       1       1       8       1
       1       8       1       1       8       1       1       8       1       1
       8       1       1       8       1       1       8       1       1       8
       1       1       8       1       1       8       1       1       8       1
       1       8       1       1       8       1       1       8       1       1
       8       1       1       8       1       1       8       1       1       8
       1       1       8       1       1       8       1       1       8       1
       1       8       1       1       8       1       1       8       1       1
       8       1       1       8       1       1       8       1       1       8
       1       1       8       1       1       8       1       1       8       1
       1       8       1       1       8       1       1       8       1       1
       8       1       1       8       1       1       8       1       1       8
       1       1       8       1       1       8       1       1       8       1
       1       8       1       1       8       1       1       8       1       1
       8       1       1       8       1       1       8       1       1       8
       1       1       8       1       1       8       1       1       8       1
       1       8       1       1       8       1       1       8       1       1
       8       1       1       8       1       1       8       1       1       8
       1       1       8       1       1       8       1       1       8       1
       1       8       1       1       8       1       1       8       1       1
       8       1       1       8       1       1       8       1       1       8
       1       1       8       1       1       8       1       1       8       1
       1       8       1       1       8       1       1       8       1       1
       8       1       1       8       1       1       8       1       1       8
       1       1       8       1       1       8       1       1       8       1
       1       8       1       1       8       1       1       8       1       1
       8       1       1       8       1       1       8       1       1       8
       1       1       8       1       1       8       1       1       8       1
       1       8       1       1       8       1       1       8       1       1
       8       1       1       8       1       1       8       1       1       8
       1       1       8       1       1       8       1       1       8       1
       1       8       1       1       8       1       1       8       1       1
       8       1       1       8       1       1       8       1       1       8
       1       1       8       1       1       8       1       1       8       1
       1       8       1       1       8       1       1       8       1       1
       8       1       1       8       1       1       8       1       1       8
       1       1       8       1       1       8       1       1       8       1
       1       8       1       1       8       1       1       8       1       1
       8       1       1       8       1       1       8       1       1       8
       1       1       8       1       1       8       1       1       8       1
       1       8       1       1       8       1       1       8       1       1
       8       1       1       8       1       1       8       1       1       8
       1       1       8       1       1       8       1       1       8       1
       1       8       1       1       8       1       1       8       1       1
       8       1       1       8       1       1       8       1       1       8
       1       1       8       1       1       8       1       1       8       1
       1       8       1       1       8       1       1       8       1       1
       8       1       1       8       1       1       8       1       1       8
       1       1       8       1       1       8       1       1       8       1
       1       8       1       1       8       1       1       8       1       1
       8       1       1       8       1       1       8       1       1       8
       1       1       8       1       1       8       1       1       8       1
       1       8       1       1       8       1       1       8       1       1
       8       1       1       8       1       1       8       1       1       8
       1       1       8       1       1       8       1       1       8       1
       1       8       1       1       8       1       1       8       1       1
       8       1       1       8       1       1       8       1       1       8
       1       1       8       1       1       8       1       1       8       1
       1       8       1       1       8       1       1       8       1       1
       8       1       1       8       1       1       8       1       1       8
       1       1       8       1       1       8       1       1       8       1
       1       8       1       1       8       1       1       8       1       1
       8       1       1       8       1       1       8       1       1       8
       1       1       8       1       1       8       1       1       8       1
       1       8       1       1       8       1       1       8       1       1
       8       1       1       8       1       1       8       1       1       8
       1       1       8       1       1       8       1       1       8       1
       1       8       1       1       8       1       1       8       1       1
       8       1       1       8       1       1       8       1       1       8
       1       1       8       1       1       8       1       1       8       1
       1       8       1       1       8       1       1       8       1       1
       8       1       1       8       1       1       8       1       1       8
       1       1       8       1       1       8       1       1       8       1
       1       8       1       1       8       1       1       8       1       1
       8       1       1       8       1       1       8       1       1       8
       1       1       8       1       1       8       1       1       8       1
       1       8       1       1       8       1       1       8       1       1
       8       1       1       8       1       1       8       1       1       8
       1       1       8       1       1       8       1       1       8       1
       1       8       1       1       8       1       1       8       1       1
       8       1       1       8       1       1       8       1       1       8
       1       1       8       1       1       8       1       1       8       1
       1       8       1       1       8       1       1       8       1       1
       8       1       1       8       1       1       8       1       1       8
       1       1       8       1       1       8       1       1       8       1
       1       8       1       1       8       1       1       8       1       1
       8       1       1       8       1       1       8       1       1       8
       1       1       8       1       1       8       1       1       8       1
       1       8       1       1       8       1       1       8       1       1
       8       1       1       8       1       1       8       1       1       8
       1       1       8       1       1       8       1       1       8       1
       1       8       1       1       8       1       1       8       1       1
       8       1       1       8       1       1       8       1       1       8
       1       1       8       1       1       8       1       1       8       1
       1       8       1       1       8       1       1       8       1       1
       8       1       1       8       1       1       8       1       1       8
       1       1       8       1       1       8       1       1       8       1
       1       8       1       1       8       1       1       8       1       1
       8       1       1       8       1       1       8       1       1       8
       1       1       8       1       1       8       1       1       8       1
       1       8       1       1       8       1       1       8       1       1
       8       1       1       8       1       1       8       1       1       8
       1       1       8       1       1       8       1       1       8       1
       1       8       1       1       8       1       1       8       1       1
       8       1       1       8       1       1       8       1       1       8
       1       1       8       1       1       8       1       1       8       1
       1       8       1       1       8       1       1       8       1       1
       8       1       1       8       1       1       8       1       1       8
       1       1       8       1       1       8       1       1       8       1
       1       8       1       1       8       1       1       8       1       1
       8       1       1       8       1       1       8       1       1       8
       1       1       8       1       1       8       1       1       8       1
       1       8       1       1       8       1       1       8       1       1
       8       1       1       8       1       1       8       1       1       8
       1       1       8       1       1       8       1       1       8       1
       1       8       1       1       8       1       1       8       1       1
       8       1       1       8       1       1       8       1       1       8
       1       1       8       1       1       8       1       1       8       1
       1       8       1       1       8       1       1       8       1       1
       8       1       1       8       1       1       8       1       1       8
       1       1       8       1       1       8       1       1       8       1
       1       8       1       1       8       1       1       8       1       1
       8       1       1       8       1       1       8       1       1       8
       1       1       8       1       1       8       1       1       8       1
       1       8       1       1       8       1       1       8       1       1
       8       1       1       8       1       1       8       1       1       8
       1       1       8       1       1       8       1       1       8       1
       1       8       1       1       8       1       1       8       1       1
       8       1       1       8       1       1       8       1       1       8
       1       1       8       1       1       8       1       1       8       1
       1       8       1       1       8       1       1       8       1       1
       8       1       1       8       1       1       8       1       1       8
       1       1       8       1       1       8       1       1       8       1
       1       8       1       1       8       1       1       8       1       1
       8       1       1       8       1       1       8       1       1       8
       1       1       8       1       1       8       1       1       8       1
       1       8       1       1       8       1       1       8       1       1
       8       1       1       8       1       1       8       1       1       8
       1       1       8       1       1       8       1       1       8       1
       1       8       1       1       8       1       1       8       1       1
       8       1       1       8       1       1       8       1       1       8
       1       1       8       1       1       8       1       1       8       1
       1       8       1       1       8       1       1       8       1       1
       8       1       1       8       1       1       8       1       1       8
       1       1       8       1       1       8       1       1       8       1
       1       8       1       1       8       1       1       8       1       1
       8       1       1       8       1       1       8       1       1       8
       1       1       8       1       1       8       1       1       8       1
       1       8       1       1       8       1       1       8       1       1
       8       1       1       8       1       1       8       1       1       8
       1       1       8       1       1       8       1       1       8       1
       1       8       1       1       8       1       1       8       1       1
       8       1       1       8       1       1       8       1       1       8
       1       1       8       1       1       8       1       1       8       1
       1       8       1       1       8       1       1       8       1       1
       8       1       1       8       1       1       8       1       1       8
       1       1       8       1       1       8       1       1       8       1
       1       8       1       1       8       1       1       8       1       1
       8       1       1       8       1       1       8       1       1       8
       1       1       8       1       1       8       1       1       8       1
       1       8       1       1       8       1       1       8       1       1
       8       1       1       8       1       1       8       1       1       8
       1       1       8       1       1       8       1       1       8       1
       1       8       1       1       8       1       1       8       1       1
       8       1       1       8       1       1       8       1       1       8
       1       1       8       1       1       8       1       1       8       1
       1       8       1       1       8       1       1       8       1       1
       8       1       1       8       1       1       8       1       1       8
       1       1       8       1       1       8       1       1       8       1
       1       8       1       1       8       1       1       8       1       1
       8       1       1       8       1       1       8       1       1       8
       1       1       8       1       1       8       1       1       8       1
       1       8       1       1       8       1       1       8       1       1
       8       1       1       8       1       1       8       1       1       8
       1       1       8       1       1       8       1       1       8       1
       1       8       1       1       8       1       1       8       1       1
       8       1       1       8       1       1       8       1       1       8
       1       1       8       1       1       8       1       1       8       1
       1       8       1       1       8       1       1       8       1       1
       8       1       1       8       1       1       8       1       1       8
       1       1       8       1       1       8       1       1       8       1
       1       8       1       1       8       1       1       8       1       1
       8       1       1       8       1       1       8       1       1       8
       1       1       8       1       1       8       1       1       8       1
       1       8       1       1       8       1       1       8       1       1
       8       1       1       8       1       1       8       1       1       8
       1       1       8       1       1       8       1       1       8       1
       1       8       1       1       8       1       1       8       1       1
       8       1       1       8       1       1       8       1       1       8
       1       1       8       1       1       8       1       1       8       1
       1       8       1       1       8       1       1       8       1       1
       8       1       1       8       1       1       8       1       1       8
       1       1       8       1       1       8       1       1       8       1
       1       8       1       1       8       1       1       8       1       1
       8       1       1       8       1       1       8       1       1       8
       1       1       8       1       1       8       1       1       8       1
       1       8       1       1       8       1       1       8       1       1
       8       1       1       8       1       1       8       1       1       8
       1       1       8       1       1       8       1       1       8       1
       1       8       1       1       8       1       1       8       1       1
       8       1       1       8       1       1       8       1       1       8
       1       1       8       1       1       8       1       1       8       1
       1       8       1       1       8       1       1       8       1       1
       8       1       1       8       1       1       8       1       1       8
       1       1       8       1       1       8       1       1       8       1
       1       8       1       1       8       1       1       8       1       1
       8       1       1       8       1       1       8       1       1       8
       1       1       8       1       1       8       1       1       8       1
       1       8       1       1       8       1       1       8       1       1
       8       1       1       8       1       1       8       1       1       8
       1       1       8       1       1       8       1       1       8       1
       1       8       1       1       8       1       1       8       1       1
       8       1       1       8       1       1       8       1       1       8
       1       1       8       1       1       8       1       1       8       1
       1       8       1       1       8       1       1       8       1       1
       8       1       1       8       1       1       8       1       1       8
       1       1       8       1       1       8       1       1       8       1
       1       8       1       1       8       1       1       8       1       1
       8       1       1       8       1       1       8       1       1       8
       1       1       8       1       1       8       1       1       8       1
       1       8       1       1       8       1       1       8       1       1
       8       1       1       8       1       1       8       1       1       8
       1       1       8       1       1       8       1       1       8       1
       1       8       1       1       8       1       1       8       1       1
       8       1       1       8       1       1       8       1       1       8
       1       1       8       1       1       8       1       1       8       1
       1       8       1       1       8       1       1       8       1       1
       8       1       1       8       1       1       8       1       1       8
       1       1       8       1       1       8       1       1       8       1
       1       8       1       1       8       1       1       8       1       1
       8       1       1       8       1       1       8       1       1       8
       1       1       8       1       1       8       1       1       8       1
       1       8       1       1       8       1       1       8       1       1
       8       1       1       8       1       1       8       1       1       8
       1       1       8       1       1       8       1       1       8       1
       1       8       1       1       8       1       1       8       1       1
       8       1       1       8       1       1       8       1       1       8
       1       1       8       1       1       8       1       1       8       1
       1       8       1       1       8       1       1       8       1       1
       8       1       1       8       1       1       8       1       1       8
       1       1       8       1       1       8       1       1       8       1
       1       8       1       1       8       1       1       8       1       1
       8       1       1       8       1       1       8       1       1       8
       1       1       8       1       1       8       1       1       8       1
       1       8       1       1       8       1       1       8       1       1
       8       1       1       8       1       1       8       1       1       8
       1       1       8       1       1       8       1       1       8       1
       1       8       1       1       8       1       1       8       1       1
       8       1       1       8       1       1       8       1       1       8
       1       1       8       1       1       8       1       1       8       1
       1       8       1       1       8       1       1       8       1       1
       8       1       1       8       1       1       8       1       1       8
       1       1       8       1       1       8       1       1       8       1
       1       8       1       1       8       1       1       8       1       1
       8       1       1       8       1       1       8       1       1       8
       1       1       8       1       1       8       1       1       8       1
       1       8       1       1       8       1       1       8       1       1
       8       1       1       8       1       1       8       1       1       8
       1       1       8       1       1       8       1       1       8       1
       1       8       1       1       8       1       1       8       1       1
       8       1       1       8       1       1       8       1       1       8
       1       1       8       1       1       8       1       1       8       1
       1       8       1       1       8       1       1       8       1       1
       8       1       1       8       1       1       8       1       1       8
       1       1       8       1       1       8       1       1       8       1
       1       8       1       1       8       1       1       8       1       1
       8       1       1       8       1       1       8       1       1       8
       1       1       8       1       1       8       1       1       8       1
       1       8       1       1       8       1       1       8       1       1
       8       1       1       8       1       1       8       1       1       8
       1       1       8       1       1       8       1       1       8       1
       1       8       1       1       8       1       1       8       1       1
       8       1       1       8       1       1       8       1       1       8
       1       1       8       1       1       8       1       1       8       1
       1       8       1       1       8       1       1       8       1       1
       8       1       1       8       1       1       8       1       1       8
       1       1       8       1       1       8       1       1       8       1
       1       8       1       1       8       1       1       8       1       1
       8       1       1       8       1       1       8       1       1       8
       1       1       8       1       1       8       1       1       8       1
       1       8       1       1       8       1       1       8       1       1
       8       1       1       8       1       1       8       1       1       8
       1       1       8       1       1       8       1       1       8       1
       1       8       1       1       8       1       1       8       1       1
       8       1       1       8       1       1       8       1       1       8
       1       1       8       1       1       8       1       1       8       1
       1       8       1       1       8       1       1       8       1       1
       8       1       1       8       1       1       8       1       1       8
       1       1       8       1       1       8       1       1       8       1
       1       8       1       1       8       1       1       8       1       1
       8       1       1       8       1       1       8       1       1       8
       1       1       8       1       1       8       1       1       8       1
       1       8       1       1       8       1       1       8       1       1
       8       1       1       8       1       1       8       1       1       8
       1       1       8       1       1       8       1       1       8       1
       1       8       1       1       8       1       1       8       1       1
       8       1       1       8       1       1       8       1       1       8
       1       1       8       1       1       8       1       1       8       1
       1       8       1       1       8       1       1       8       1       1
       8       1       1       8       1       1       8       1       1       8
       1       1       8       1       1       8       1       1       8       1
       1       8       1       1       8       1       1       8       1       1
       8       1       1       8       1       1       8       1       1       8
       1       1       8       1       1       8       1       1       8       1
       1       8       1       1       8       1       1       8       1       1
       8       1       1       8       1       1       8       1       1       8
       1       1       8       1       1       8       1       1       8       1
       1       8       1       1       8       1       1       8       1       1
       8       1       1       8       1       1       8       1       1       8
       1       1       8       1       1       8       1       1       8       1
       1       8       1       1       8       1       1       8       1       1
       8       1       1       8       1       1       8       1       1       8
       1       1       8       1       1       8       1       1       8       1
       1       8       1       1       8       1       1       8       1       1
       8       1       1       8       1       1       8       1       1       8
       1       1       8       1       1       8       1       1       8       1
       1       8       1       1       8       1       1       8       1       1
       8       1       1       8       1       1       8       1       1       8
       1       1       8       1       1       8       1       1       8       1
       1       8       1       1       8       1       1       8       1       1
       8       1       1       8       1       1       8       1       1       8
       1       1       8       1       1       8       1       1       8       1
       1       8       1       1       8       1       1       8       1       1
       8       1       1       8       1       1       8       1       1       8
       1       1       8       1       1       8       1       1       8       1
       1       8       1       1       8       1       1       8       1       1
       8       1       1       8       1       1       8       1       1       8
       1       1       8       1       1       8       1       1       8       1
       1       8       1       1       8       1       1       8       1       1
       8       1       1       8       1       1       8       1       1       8
       1       1       8       1       1       8       1       1       8       1
       1       8       1       1       8       1       1       8       1       1
       8       1       1       8       1       1       8       1       1       8
       1       1       8       1       1       8       1       1       8       1
       1       8       1       1       8       1       1       8       1       1
       8       1       1       8       1       1       8       1       1       8
       1       1       8       1       1       8       1       1       8       1
       1       8       1       1       8       1       1       8       1       1
       8       1       1       8       1       1       8       1       1       8
       1       1       8       1       1       8       1       1       8       1
       1       8       1       1       8       1       1       8       1       1
       8       1       1       8       1       1       8       1       1       8
       1       1       8       1       1       8       1       1       8       1
       1       8       1       1       8       1       1       8       1       1
       8       1       1       8       1       1       8       1       1       8
       1       1       8       1       1       8       1       1       8       1
       1       8       1       1       8       1       1       8       1       1
       8       1       1       8       1       1       8       1       1       8
       1       1       8       1       1       8       1       1       8       1
       1       8       1       1       8       1       1       8       1       1
       8       1       1       8       1       1       8       1       1       8
       1       1       8       1       1       8       1       1       8       1
       1       8       1       1       8       1       1       8       1       1
       8       1       1       8       1       1       8       1       1       8
       1       1       8       1       1       8       1       1       8       1
       1       8       1       1       8       1       1       8       1       1
       8       1       1       8       1       1       8       1       1       8
       1       1       8       1       1       8       1       1       8       1
       1       8       1       1       8       1       1       8       1       1
       8       1       1       8       1       1       8       1       1       8
       1       1       8       1       1       8       1       1       8       1
       1       8       1       1       8       1       1       8       1       1
       8       1       1       8       1       1       8       1       1       8
       1       1       8       1       1       8       1       1       8       1
       1       8       1       1       8       1       1       8       1       1
       8       1       1       8       1       1       8       1       1       8
       1       1       8       1       1       8       1       1       8       1
       1       8       1       1       8       1       1       8       1       1
       8       1       1       8       1       1       8       1       1       8
       1       1       8       1       1       8       1       1       8       1
       1       8       1       1       8       1       1       8       1       1
       8       1       1       8       1       1       8       1       1       8
       1       1       8       1       1       8       1       1       8       1
       1       8       1       1       8       1       1       8       1       1
       8       1       1       8       1       1       8       1       1       8
       1       1       8       1       1       8       1       1       8       1
       1       8       1       1       8       1       1       8       1       1
       8       1       1       8       1       1       8       1       1       8
       1       1       8       1       1       8       1       1       8       1
       1       8       1       1       8       1       1       8       1       1
       8       1       1       8       1       1       8       1       1       8
       1       1       8       1       1       8       1       1       8       1
       1       8       1       1       8       1       1       8       1       1
       8       1       1       8       1       1       8       1       1       8
       1       1       8       1       1       8       1       1       8       1
       1       8       1       1       8       1       1       8       1       1
       8       1       1       8       1       1       8       1       1       8
       1       1       8       1       1       8       1       1       8       1
       1       8       1       1       8       1       1       8       1       1
       8       1       1       8       1       1       8       1       1       8
       1       1       8       1       1       8       1       1       8       1
       1       8       1       1       8       1       1       8       1       1
       8       1       1       8       1       1       8       1       1       8
       1       1       8       1       1       8       1       1       8       1
       1       8       1       1       8       1       1       8       1       1
       8       1       1       8       1       1       8       1       1       8
       1       1       8       1       1       8       1       1       8       1
       1       8       1       1       8       1       1       8       1       1
       8       1       1       8       1       1       8       1       1       8
       1       1       8       1       1       8       1       1       8       1
       1       8       1       1       8       1       1       8       1       1
       8       1       1       8       1       1       8       1       1       8
       1       1       8       1       1       8       1       1       8       1
       1       8       1       1       8       1       1       8       1       1
       8       1       1       8       1       1       8       1       1       8
       1       1       8       1       1       8       1       1       8       1
       1       8       1       1       8       1       1       8       1       1
       8       1       1       8       1       1       8       1       1       8
       1       1       8       1       1       8       1       1       8       1
       1       8       1       1       8       1       1       8       1       1
       8       1       1       8       1       1       8       1       1       8
       1       1       8       1       1       8       1       1       8       1
       1       8       1       1       8       1       1       8       1       1
       8       1       1       8       1       1       8       1       1       8
       1       1       8       1       1       8       1       1       8       1
       1       8       1       1       8       1       1       8       1       1
       8       1       1       8       1       1       8       1       1       8
       1       1       8       1       1       8       1       1       8       1
       1       8       1       1       8       1       1       8       1       1
       8       1       1       8       1       1       8       1       1       8
       1       1       8       1       1       8       1       1       8       1
       1       8       1       1       8       1       1       8       1       1
       8       1       1       8       1       1       8       1       1       8
       1       1       8       1       1       8       1       1       8       1
       1       8       1       1       8       1       1       8       1       1
       8       1       1       8       1       1       8       1       1       8
       1       1       8       1       1       8       1       1       8       1
       1       8       1       1       8       1       1       8       1       1
       8       1       1       8       1       1       8       1       1       8
       1       1       8       1       1       8       1       1       8       1
       1       8       1       1       8       1       1       8       1       1
       8       1       1       8       1       1       8       1       1       8
       1       1       8       1       1       8       1       1       8       1
       1       8       1       1       8       1       1       8       1       1
       8       1       1       8       1       1       8       1       1       8
       1       1       8       1       1       8       1       1       8       1
       1       8       1       1       8       1       1       8       1       1
       8       1       1       8       1       1       8       1       1       8
       1       1       8       1       1       8       1       1       8       1
       1       8       1       1       8       1       1       8       1       1
       8       1       1       8       1       1       8       1       1       8
       1       1       8       1       1       8       1       1       8       1
       1       8       1       1       8       1       1       8       1       1
       8       1       1       8       1       1       8       1       1       8
       1       1       8       1       1       8       1       1       8       1
       1       8       1       1       8       1       1       8       1       1
       8       1       1       8       1       1       8       1       1       8
       1       1       8       1       1       8       1       1       8       1
       1       8       1       1       8       1       1       8       1       1
       8       1       1       8       1       1       8       1       1       8
       1       1       8       1       1       8       1       1       8       1
       1       8       1       1       8       1       1       8       1       1
       8       1       1       8       1       1       8       1       1       8
       1       1       8       1       1       8       1       1       8       1
       1       8       1       1       8       1       1       8       1       1
       8       1       1       8       1       1       8       1       1       8
       1       1       8       1       1       8       1       1       8       1
       1       8       1       1       8       1       1       8       1       1
       8       1       1       8       1       1       8       1       1       8
       1       1       8       1       1       8       1       1       8       1
       1       8       1       1       8       1       1       8       1       1
       8       1       1       8       1       1       8       1       1       8
       1       1       8       1       1       8       1       1       8       1
       1       8       1       1       8       1       1       8       1       1
       8       1       1       8       1       1       8       1       1       8
       1       1       8       1       1       8       1       1       8       1
       1       8       1       1       8       1       1       8       1       1
       8       1       1       8       1       1       8       1       1       8
       1       1       8       1       1       8       1       1       8       1
       1       8       1       1       8       1       1       8       1       1
       8       1       1       8       1       1       8       1       1       8
       1       1       8       1       1       8       1       1       8       1
       1       8       1       1       8       1       1       8       1       1
       8       1       1       8       1       1       8       1       1       8
       1       1       8       1       1       8       1       1       8       1
       1       8       1       1       8       1       1       8       1       1
       8       1       1       8       1       1       8       1       1       8
       1       1       8       1       1       8       1       1       8       1
       1       8       1       1       8       1       1       8       1       1
       8       1       1       8       1       1       8       1       1       8
       1       1       8       1       1       8       1       1       8       1
       1       8       1       1       8       1       1       8       1       1
       8       1       1       8       1       1       8       1       1       8
       1       1       8       1       1       8       1       1       8       1
       1       8       1       1       8       1       1       8       1       1
       8       1       1       8       1       1       8       1       1       8
       1       1       8       1       1       8       1       1       8       1
       1       8       1       1       8       1       1       8       1       1
       8       1       1       8       1       1       8       1       1       8
       1       1       8       1       1       8       1       1       8       1
       1       8       1       1       8       1       1       8       1       1
       8       1       1       8       1       1       8       1       1       8
       1       1       8       1       1       8       1       1       8       1
       1       8       1       1       8       1       1       8       1       1
       8       1       1       8       1       1       8       1       1       8
       1       1       8       1       1       8       1       1       8       1
       1       8       1       1       8       1       1       8       1       1
       8       1       1       8       1       1       8       1       1       8
       1       1       8       1       1       8       1       1       8       1
       1       8       1       1       8       1       1       8       1       1
       8       1       1       8       1       1       8       1       1       8
       1       1       8       1       1       8       1       1       8       1
       1       8       1       1       8       1       1       8       1       1
       8       1       1       8       1       1       8       1       1       8
       1       1       8       1       1       8       1       1       8       1
       1       8       1       1       8       1       1       8       1       1
       8       1       1       8       1       1       8       1       1       8
       1       1       8       1       1       8       1       1       8       1
       1       8       1       1       8       1       1       8       1       1
       8       1       1       8       1       1       8       1       1       8
       1       1       8       1       1       8       1       1       8       1
       1       8       1       1       8       1       1       8       1       1
       8       1       1       8       1       1       8       1       1       8
       1       1       8       1       1       8       1       1       8       1
       1       8       1       1       8       1       1       8       1       1
       8       1       1       8       1       1       8       1       1       8
       1       1       8       1       1       8       1       1       8       1
       1       8       1       1       8       1       1       8       1       1
       8       1       1       8       1       1       8       1       1       8
       1       1       8       1       1       8       1       1       8       1
       1       8       1       1       8       1       1       8       1       1
       8       1       1       8       1       1       8       1       1       8
       1       1       8       1       1       8       1       1       8       1
       1       8       1       1       8       1       1       8       1       1
       8       1       1       8       1       1       8       1       1       8
       1       1       8       1       1       8       1       1       8       1
       1       8       1       1       8       1       1       8       1       1
       8       1       1       8       1       1       8       1       1       8
       1       1       8       1       1       8       1       1       8       1
       1       8       1       1       8       1       1       8       1       1
       8       1       1       8       1       1       8       1       1       8
       1       1       8       1       1       8       1       1       8       1
       1       8       1       1       8       1       1       8       1       1
       8       1       1       8       1       1       8       1       1       8
       1       1       8       1       1       8       1       1       8       1
       1       8       1       1       8       1       1       8       1       1
       8       1       1       8       1       1       8       1       1       8
       1       1       8       1       1       8       1       1       8       1
       1       8       1       1       8       1       1       8       1       1
       8       1       1       8       1       1       8       1       1       8
       1       1       8       1       1       8       1       1       8       1
       1       8       1       1       8       1       1       8       1       1
       8       1       1       8       1       1       8       1       1       8
       1       1       8       1       1       8       1       1       8       1
       1       8       1       1       8       1       1       8       1       1
       8       1       1       8       1       1       8       1       1       8
       1       1       8       1       1       8       1       1       8       1
       1       8       1       1       8       1       1       8       1       1
       8       1       1       8       1       1       8       1       1       8
       1       1       8       1       1       8       1       1       8       1
       1       8       1       1       8       1       1       8       1       1
       8       1       1       8       1       1       8       1       1       8
       1       1       8       1       1       8       1       1       8       1
       1       8       1       1       8       1       1       8       1       1
       8       1       1       8       1       1       8       1       1       8
       1       1       8       1       1       8       1       1       8       1
       1       8       1       1       8       1       1       8       1       1
       8       1       1       8       1       1       8       1       1       8
       1       1       8       1       1       8       1       1       8       1
       1       8       1       1       8       1       1       8       1       1
       8       1       1       8       1       1       8       1       1       8
       1       1       8       1       1       8       1       1       8       1
       1       8       1       1       8       1       1       8       1       1
       8       1       1       8       1       1       8       1       1       8
       1       1       8       1       1       8       1       1       8       1
       1       8       1       1       8       1       1       8       1       1
       8       1       1       8       1       1       8       1       1       8
       1       1       8       1       1       8       1       1       8       1
       1       8       1       1       8       1       1       8       1       1
       8       1       1       8       1       1       8       1       1       8
       1       1       8       1       1       8       1       1       8       1
       1       8       1       1       8       1       1       8       1       1
       8       1       1       8       1       1       8       1       1       8
       1       1       8       1       1       8       1       1       8       1
       1       8       1       1       8       1       1       8       1       1
       8       1       1       8       1       1       8       1       1       8
       1       1       8       1       1       8       1       1       8       1
       1       8       1       1       8       1       1       8       1       1
       8       1       1       8       1       1       8       1       1       8
       1       1       8       1       1       8       1       1       8       1
       1       8       1       1       8       1       1       8       1       1
       8       1       1       8       1       1       8       1       1       8
       1       1       8       1       1       8       1       1       8       1
       1       8       1       1       8       1       1       8       1       1
       8       1       1       8       1       1       8       1       1       8
       1       1       8       1       1       8       1       1       8       1
       1       8       1       1       8       1       1       8       1       1
       8       1       1       8       1       1       8       1       1       8
       1       1       8       1       1       8       1       1       8       1
       1       8       1       1       8       1       1       8       1       1
       8       1       1       8       1       1       8       1       1       8
       1       1       8       1       1       8       1       1       8       1
       1       8       1       1       8       1       1       8       1       1
       8       1       1       8       1       1       8       1       1       8
       1       1       8       1       1       8       1       1       8       1
       1       8       1       1       8       1       1       8       1       1
       8       1       1       8       1       1       8       1       1       8
       1       1       8       1       1       8       1       1       8       1
       1       8       1       1       8       1       1       8       1       1
       8       1       1       8       1       1       8       1       1       8
       1       1       8       1       1       8       1       1       8       1
       1       8       1       1       8       1       1       8       1       1
       8       1       1       8       1       1       8       1       1       8
       1       1       8       1       1       8       1       1       8       1
       1       8       1       1       8       1       1       8       1       1
       8       1       1       8       1       1       8       1       1       8
       1       1       8       1       1       8       1       1       8       1
       1       8       1       1       8       1       1       8       1       1
       8       1       1       8       1       1       8       1       1       8
       1       1       8       1       1       8       1       1       8       1
       1       8       1       1       8       1       1       8       1       1
       8       1       1       8       1       1       8       1       1       8
       1       1       8       1       1       8       1       1       8       1
       1       8       1       1       8       1       1       8       1       1
       8       1       1       8       1       1       8       1       1       8
       1       1       8       1       1       8       1       1       8       1
       1       8       1       1       8       1       1       8       1       1
       8       1       1       8       1       1       8       1       1       8
       1       1       8       1       1       8       1       1       8       1
       1       8       1       1       8       1       1       8       1       1
       8       1       1       8       1       1       8       1       1       8
       1       1       8       1       1       8       1       1       8       1
       1       8       1       1       8       1       1       8       1       1
       8       1       1       8       1       1       8       1       1       8
       1       1       8       1       1       8       1       1       8       1
       1       8       1       1       8       1       1       8       1       1
       8       1       1       8       1       1       8       1       1       8
       1       1       8       1       1       8       1       1       8       1
       1       8       1       1       8       1       1       8       1       1
       8       1       1       8       1       1       8       1       1       8
       1       1       8       1       1       8       1       1       8       1
       1       8       1       1       8       1       1       8       1       1
       8       1       1       8       1       1       8       1       1       8
       1       1       8       1       1       8       1       1       8       1
       1       8       1       1       8       1       1       8       1       1
       8       1       1       8       1       1       8       1       1       8
       1       1       8       1       1       8       1       1       8       1
       1       8       1       1       8       1       1       8       1       1
       8       1       1       8       1       1       8       1       1       8
       1       1       8       1       1       8       1       1       8       1
       1       8       1       1       8       1       1       8       1       1
       8       1       1       8       1       1       8       1       1       8
       1       1       8       1       1       8       1       1       8       1
       1       8       1       1       8       1       1       8       1       1
       8       1       1       8       1       1       8       1       1       8
       1       1       8       1       1       8       1       1       8       1
       1       8       1       1       8       1       1       8       1       1
       8       1       1       8       1       1       8       1       1       8
       1       1       8       1       1       8       1       1       8       1
       1       8       1       1       8       1       1       8       1       1
       8       1       1       8       1       1       8       1       1       8
       1       1       8       1       1       8       1       1       8       1
       1       8       1       1       8       1       1       8       1       1
       8       1       1       8       1       1       8       1       1       8
       1       1       8       1       1       8       1       1       8       1
       1       8       1       1       8       1       1       8       1       1
       8       1       1       8       1       1       8       1       1       8
       1       1       8       1       1       8       1       1       8       1
       1       8       1       1       8       1       1       8       1       1
       8       1       1       8       1       1       8       1       1       8
       1       1       8       1       1       8       1       1       8       1
       1       8       1       1       8       1       1       8       1       1
       8       1       1       8       1       1       8       1       1       8
       1       1       8       1       1       8       1       1       8       1
       1       8       1       1       8       1       1       8       1       1
       8       1       1       8       1       1       8       1       1       8
       1       1       8       1       1       8       1       1       8       1
       1       8       1       1       8       1       1       8       1       1
       8       1       1       8       1       1       8       1       1       8
       1       1       8       1       1       8       1       1       8       1
       1       8       1       1       8       1       1       8       1       1
       8       1       1       8       1       1       8       1       1       8
       1       1       8       1       1       8       1       1       8       1
       1       8       1       1       8       1       1       8       1       1
       8       1       1       8       1       1       8       1       1       8
       1       1       8       1       1       8       1       1       8       1
       1       8       1       1       8       1       1       8       1       1
       8       1       1       8       1       1       8       1       1       8
       1       1       8       1       1       8       1       1       8       1
       1       8       1       1       8       1       1       8       1       1
       8       1       1       8       1       1       8       1       1       8
       1       1       8       1       1       8       1       1       8       1
       1       8       1       1       8       1       1       8       1       1
       8       1       1       8       1       1       8       1       1       8
       1       1       8       1       1       8       1       1       8       1
       1       8       1       1       8       1       1       8       1       1
       8       1       1       8       1       1       8       1       1       8
       1       1       8       1       1       8       1       1       8       1
       1       8       1       1       8       1       1       8       1       1
       8       1       1       8       1       1       8       1       1       8
       1       1       8       1       1       8       1       1       8       1
       1       8       1       1       8       1       1       8       1       1
       8       1       1       8       1       1       8       1       1       8
       1       1       8       1       1       8       1       1       8       1
       1       8       1       1       8       1       1       8       1       1
       8       1       1       8       1       1       8       1       1       8
       1       1       8       1       1       8       1       1       8       1
       1       8       1       1       8       1       1       8       1       1
       8       1       1       8       1       1       8       1       1       8
       1       1       8       1       1       8       1       1       8       1
       1       8       1       1       8       1       1       8       1       1
       8       1       1       8       1       1       8       1       1       8
       1       1       8       1       1       8       1       1       8       1
       1       8       1       1       8       1       1       8       1       1
       8       1       1       8       1       1       8       1       1       8
       1       1       8       1       1       8       1       1       8       1
       1       8       1       1       8       1       1       8       1       1
       8       1       1       8       1       1       8       1       1       8
       1       1       8       1       1       8       1       1       8       1
       1       8       1       1       8       1       1       8       1       1
       8       1       1       8       1       1       8       1       1       8
       1       1       8       1       1       8       1       1       8       1
       1       8       1       1       8       1       1       8       1       1
       8       1       1       8       1       1       8       1       1       8
       1       1       8       1       1       8       1       1       8       1
       1       8       1       1       8       1       1       8       1       1
       8       1       1       8       1       1       8       1       1       8
       1       1       8       1       1       8       1       1       8       1
       1       8       1       1       8       1       1       8       1       1
       8       1       1       8       1       1       8       1       1       8
       1       1       8       1       1       8       1       1       8       1
       1       8       1       1       8       1       1       8       1       1
       8       1       1       8       1       1       8       1       1       8
       1       1       8       1       1       8       1       1       8       1
       1       8       1       1       8       1       1       8       1       1
       8       1       1       8       1       1       8       1       1       8
       1       1       8       1       1       8       1       1       8       1
       1       8       1       1       8       1       1       8       1       1
       8       1       1       8       1       1       8       1       1       8
       1       1       8       1       1       8       1       1       8       1
       1       8       1       1       8       1       1       8       1       1
       8       1       1       8       1       1       8       1       1       8
       1       1       8       1       1       8       1       1       8       1
       1       8       1       1       8       1       1       8       1       1
       8       1       1       8       1       1       8       1       1       8
       1       1       8       1       1       8       1       1       8       1
       1       8       1       1       8       1       1       8       1       1
       8       1       1       8       1       1       8       1       1       8
       1       1       8       1       1       8       1       1       8       1
       1       8       1       1       8       1       1       8       1       1
       8       1       1       8       1       1       8       1       1       8
       1       1       8       1       1       8       1       1       8       1
       1       8       1       1       8       1       1       8       1       1
       8       1       1       8       1       1       8       1       1       8
       1       1       8       1       1       8       1       1       8       1
       1       8       1       1       8       1       1       8       1       1
       8       1       1       8       1       1       8       1       1       8
       1       1       8       1       1       8       1       1       8       1
       1       8       1       1       8       1       1       8       1       1
       8       1       1       8       1       1       8       1       1       8
       1       1       8       1       1       8       1       1       8       1
       1       8       1       1       8       1       1       8       1       1
       8       1       1       8       1       1       8       1       1       8
       1       1       8       1       1       8       1       1       8       1
       1       8       1       1       8       1       1       8       1       1
       8       1       1       8       1       1       8       1       1       8
       1       1       8       1       1       8       1       1       8       1
       1       8       1       1       8       1       1       8       1       1
       8       1       1       8       1       1       8       1       1       8
       1       1       8       1       1       8       1       1       8       1
       1       8       1       1       8       1       1       8       1       1
       8       1       1       8       1       1       8       1       1       8
       1       1       8       1       1       8       1       1       8       1
       1       8       1       1       8       1       1       8       1       1
       8       1       1       8       1       1       8       1       1       8
       1       1       8       1       1       8       1       1       8       1
       1       8       1       1       8       1       1       8       1       1
       8       1       1       8       1       1       8       1       1       8
       1       1       8       1       1       8       1       1       8       1
       1       8       1       1       8       1       1       8       1       1
       8       1       1       8       1       1       8       1       1       8
       1       1       8       1       1       8       1       1       8       1
       1       8       1       1       8       1       1       8       1       1
       8       1       1       8       1       1       8       1       1       8
       1       1       8       1       1       8       1       1       8       1
       1       8       1       1       8       1       1       8       1       1
       8       1       1       8       1       1       8       1       1       8
       1       1       8       1       1       8       1       1       8       1
       1       8       1       1       8       1       1       8       1       1
       8       1       1       8       1       1       8       1       1       8
       1       1       8       1       1       8       1       1       8       1
       1       8       1       1       8       1       1       8       1       1
       8       1       1       8       1       1       8       1       1       8
       1       1       8       1       1       8       1       1       8       1
       1       8       1       1       8       1       1       8       1       1
       8       1       1       8       1       1       8       1       1       8
       1       1       8       1       1       8       1       1       8       1
       1       8       1       1       8       1       1       8       1       1
       8       1       1       8       1       1       8       1       1       8
       1       1       8       1       1       8       1       1       8       1
       1       8       1       1       8       1       1       8       1       1
       8       1       1       8       1       1       8       1       1       8
       1       1       8       1       1       8       1       1       8       1
       1       8       1       1       8       1       1       8       1       1
       8       1       1       8       1       1       8       1       1       8
       1       1       8       1       1       8       1       1       8       1
       1       8       1       1       8       1       1       8       1       1
       8       1       1       8       1       1       8       1       1       8
       1       1       8       1       1       8       1       1       8       1
       1       8       1       1       8       1       1       8       1       1
       8       1       1       8       1       1       8       1       1       8
       1       1       8       1       1       8       1       1       8       1
       1       8       1       1       8       1       1       8       1       1
       8       1       1       8       1       1       8       1       1       8
       1       1       8       1       1       8       1       1       8       1
       1       8       1       1       8       1       1       8       1       1
       8       1       1       8       1       1       8       1       1       8
       1       1       8       1       1       8       1       1       8       1
       1       8       1       1       8       1       1       8       1       1
       8       1       1       8       1       1       8       1       1       8
       1       1       8       1       1       8       1       1       8       1
       1       8       1       1       8       1       1       8       1       1
       8       1       1       8       1       1       8       1       1       8
       1       1       8       1       1       8       1       1       8       1
       1       8       1       1       8       1       1       8       1       1
       8       1       1       8       1       1       8       1       1       8
       1       1       8       1       1       8       1       1       8       1
       1       8       1       1       8       1       1       8       1       1
       8       1       1       8       1       1       8       1       1       8
       1       1       8       1       1       8       1       1       8       1
       1       8       1       1       8       1       1       8       1       1
       8       1       1       8       1       1       8       1       1       8
       1       1       8       1       1       8       1       1       8       1
       1       8       1       1       8       1       1       8       1       1
       8       1       1       8       1       1       8       1       1       8
       1       1       8       1       1       8       1       1       8       1
       1       8       1       1       8       1       1       8       1       1
       8       1       1       8       1       1       8       1       1       8
       1       1       8       1       1       8       1       1       8       1
       1       8       1       1       8       1       1       8       1       1
       8       1       1       8       1       1       8       1       1       8
       1       1       8       1       1       8       1       1       8       1
       1       8       1       1       8       1       1       8       1       1
       8       1       1       8       1       1       8       1       1       8
       1       1       8       1       1       8       1       1       8       1
       1       8       1       1       8       1       1       8       1       1
       8       1       1       8       1       1       8       1       1       8
       1       1       8       1       1       8       1       1       8       1
       1       8       1       1       8       1       1       8       1       1
       8       1       1       8       1       1       8       1       1       8
       1       1       8       1       1       8       1       1       8       1
       1       8       1       1       8       1       1       8       1       1
       8       1       1       8       1       1       8       1       1       8
       1       1       8       1       1       8       1       1       8       1
       1       8       1       1       8       1       1       8       1       1
       8       1       1       8       1       1       8       1       1       8
       1       1       8       1       1       8       1       1       8       1
       1       8       1       1       8       1       1       8       1       1
       8       1       1       8       1       1       8       1       1       8
       1       1       8       1       1       8       1       1       8       1
       1       8       1       1       8       1       1       8       1       1
       8       1       1       8       1       1       8       1       1       8
       1       1       8       1       1       8       1       1       8       1
       1       8       1       1       8       1       1       8       1       1
       8       1       1       8       1       1       8       1       1       8
       1       1       8       1       1       8       1       1       8       1
       1       8       1       1       8       1       1       8       1       1
       8       1       1       8       1       1       8       1       1       8
       1       1       8       1       1       8       1       1       8       1
       1       8       1       1       8       1       1       8       1       1
       8       1       1       8       1       1       8       1       1       8
       1       1       8       1       1       8       1       1       8       1
       1       8       1       1       8       1       1       8       1       1
       8       1       1       8       1       1       8       1       1       8
       1       1       8       1       1       8       1       1       8       1
       1       8       1       1       8       1       1       8       1       1
       8       1       1       8       1       1       8       1       1       8
       1       1       8       1       1       8       1       1       8       1
       1       8       1       1       8       1       1       8       1       1
       8       1       1       8       1       1       8       1       1       8
       1       1       8       1       1       8       1       1       8       1
       1       8       1       1       8       1       1       8       1       1
       8       1       1       8       1       1       8       1       1       8
       1       1       8       1       1       8       1       1       8       1
       1       8       1       1       8       1       1       8       1       1
       8       1       1       8       1       1       8       1       1       8
       1       1       8       1       1       8       1       1       8       1
       1       8       1       1       8       1       1       8       1       1
       8       1       1       8       1       1       8       1       1       8
       1       1       8       1       1       8       1       1       8       1
       1       8       1       1       8       1       1       8       1       1
       8       1       1       8       1       1       8       1       1       8
       1       1       8       1       1       8       1       1       8       1
       1       8       1       1       8       1       1       8       1       1
       8       1       1       8       1       1       8       1       1       8
       1       1       8       1       1       8       1       1       8       1
       1       8       1       1       8       1       1       8       1       1
       8       1       1       8       1       1       8       1       1       8
       1       1       8       1       1       8       1       1       8       1
       1       8       1       1       8       1       1       8       1       1
       8       1       1       8       1       1       8       1       1       8
       1       1       8       1       1       8       1       1       8       1
       1       8       1       1       8       1       1       8       1       1
       8       1       1       8       1       1       8       1       1       8
       1       1       8       1       1       8       1       1       8       1
       1       8       1       1       8       1       1       8       1       1
       8       1       1       8       1       1       8       1       1       8
       1       1       8       1       1       8       1       1       8       1
       1       8       1       1       8       1       1       8       1       1
       8       1       1       8       1       1       8       1       1       8
       1       1       8       1       1       8       1       1       8       1
       1       8       1       1       8       1       1       8       1       1
       8       1       1       8       1       1       8       1       1       8
       1       1       8       1       1       8       1       1       8       1
       1       8       1       1       8       1       1       8       1       1
       8       1       1       8       1       1       8       1       1       8
       1       1       8       1       1       8       1       1       8       1
       1       8       1       1       8       1       1       8       1       1
       8       1       1       8       1       1       8       1       1       8
       1       1       8       1       1       8       1       1       8       1
       1       8       1       1       8       1       1       8       1       1
       8       1       1       8       1       1       8       1       1       8
       1       1       8       1       1       8       1       1       8       1
       1       8       1       1       8       1       1       8       1       1
       8       1       1       8       1       1       8       1       1       8
       1       1       8       1       1       8       1       1       8       1
       1       8       1       1       8       1       1       8       1       1
       8       1       1       8       1       1       8       1       1       8
       1       1       8       1       1       8       1       1       8       1
       1       8       1       1       8       1       1       8       1       1
       8       1       1       8       1       1       8       1       1       8
       1       1       8       1       1       8       1       1       8       1
       1       8       1       1       8       1       1       8       1       1
       8       1       1       8       1       1       8       1       1       8
       1       1       8       1       1       8       1       1       8       1
       1       8       1       1       8       1       1       8       1       1
       8       1       1       8       1       1       8       1       1       8
       1       1       8       1       1       8       1       1       8       1
       1       8       1       1       8       1       1       8       1       1
       8       1       1       8       1       1       8       1       1       8
       1       1       8       1       1       8       1       1       8       1
       1       8       1       1       8       1       1       8       1       1
       8       1       1       8       1       1       8       1       1       8
       1       1       8       1       1       8       1       1       8       1
       1       8       1       1       8       1       1       8       1       1
       8       1       1       8       1       1       8       1       1       8
       1       1       8       1       1       8       1       1       8       1
       1       8       1       1       8       1       1       8       1       1
       8       1       1       8       1       1       8       1       1       8
       1       1       8       1       1       8       1       1       8       1
       1       8       1       1       8       1       1       8       1       1
       8       1       1       8       1       1       8       1       1       8
       1       1       8       1       1       8       1       1       8       1
       1       8       1       1       8       1       1       8       1       1
       8       1       1       8       1       1       8       1       1       8
       1       1       8       1       1       8       1       1       8       1
       1       8       1       1       8       1       1       8       1       1
       8       1       1       8       1       1       8       1       1       8
       1       1       8       1       1       8       1       1       8       1
       1       8       1       1       8       1       1       8       1       1
       8       1       1       8       1       1       8       1       1       8
       1       1       8       1       1       8       1       1       8       1
       1       8       1       1       8       1       1       8       1       1
       8       1       1       8       1       1       8       1       1       8
       1       1       8       1       1       8       1       1       8       1
       1       8       1       1       8       1       1       8       1       1
       8       1       1       8       1       1       8       1       1       8
       1       1       8       1       1       8       1       1       8       1
       1       8       1       1       8       1       1       8       1       1
       8       1       1       8       1       1       8       1       1       8
       1       1       8       1       1       8       1       1       8       1
       1       8       1       1       8       1       1       8       1       1
       8       1       1       8       1       1       8       1       1       8
       1       1       8       1       1       8       1       1       8       1
       1       8       1       1       8       1       1       8       1       1
       8       1       1       8       1       1       8       1       1       8
       1       1       8       1       1       8       1       1       8       1
       1       8       1       1       8       1       1       8       1       1
       8       1       1       8       1       1       8       1       1       8
       1       1       8       1       1       8       1       1       8       1
       1       8       1       1       8       1       1       8       1       1
       8       1       1       8       1       1       8       1       1       8
       1       1       8       1       1       8       1       1       8       1
       1       8       1       1       8       1       1       8       1       1
       8       1       1       8       1       1       8       1       1       8
       1       1       8       1       1       8       1       1       8       1
       1       8       1       1       8       1       1       8       1       1
       8       1       1       8       1       1       8       1       1       8
       1       1       8       1       1       8       1       1       8       1
       1       8       1       1       8       1       1       8       1       1
       8       1       1       8       1       1       8       1       1       8
       1       1       8       1       1       8       1       1       8       1
       1       8       1       1       8       1       1       8       1       1
       8       1       1       8       1       1       8       1       1       8
       1       1       8       1       1       8       1       1       8       1
       1       8       1       1       8       1       1       8       1       1
       8       1       1       8       1       1       8       1       1       8
       1       1       8       1       1       8       1       1       8       1
       1       8       1       1       8       1       1       8       1       1
       8       1       1       8       1       1       8       1       1       8
       1       1       8       1       1       8       1       1       8       1
       1       8       1       1       8       1       1       8       1       1
       8       1       1       8       1       1       8       1       1       8
       1       1       8       1       1       8       1       1       8       1
       1       8       1       1       8       1       1       8       1       1
       8       1       1       8       1       1       8       1       1       8
       1       1       8       1       1       8       1       1       8       1
       1       8       1       1       8       1       1       8       1       1
       8       1       1       8       1       1       8       1       1       8
       1       1       8       1       1       8       1       1       8       1
       1       8       1       1       8       1       1       8       1       1
       8       1       1       8       1       1       8       1       1       8
       1       1       8       1       1       8       1       1       8       1
       1       8       1       1       8       1       1       8       1       1
       8       1       1       8       1       1       8       1       1       8
       1       1       8       1       1       8       1       1       8       1
       1       8       1       1       8       1       1       8       1       1
       8       1       1       8       1       1       8       1       1       8
       1       1       8       1       1       8       1       1       8       1
       1       8       1       1       8       1       1       8       1       1
       8       1       1       8       1       1       8       1       1       8
       1       1       8       1       1       8       1       1       8       1
       1       8       1       1       8       1       1       8       1       1
       8       1       1       8       1       1       8       1       1       8
       1       1       8       1       1       8       1       1       8       1
       1       8       1       1       8       1       1       8       1       1
       8       1       1       8       1       1       8       1       1       8
       1       1       8       1       1       8       1       1       8       1
       1       8       1       1       8       1       1       8       1       1
       8       1       1       8       1       1       8       1       1       8
       1       1       8       1       1       8       1       1       8       1
       1       8       1       1       8       1       1       8       1       1
       8       1       1       8       1       1       8       1       1       8
       1       1       8       1       1       8       1       1       8       1
       1       8       1       1       8       1       1       8       1       1
       8       1       1       8       1       1       8       1       1       8
       1       1       8       1       1       8       1       1       8       1
       1       8       1       1       8       1       1       8       1       1
       8       1       1       8       1       1       8       1       1       8
       1       1       8       1       1       8       1       1       8       1
       1       8       1       1       8       1       1       8       1       1
       8       1       1       8       1       1       8       1       1       8
       1       1       8       1       1       8       1       1       8       1
       1       8       1       1       8       1       1       8       1       1
       8       1       1       8       1       1       8       1       1       8
       1       1       8       1       1       8       1       1       8       1
       1       8       1       1       8       1       1       8       1       1
       8       1       1       8       1       1       8       1       1       8
       1       1       8       1       1       8       1       1       8       1
       1       8       1       1       8       1       1       8       1       1
       8       1       1       8       1       1       8       1       1       8
       1       1       8       1       1       8       1       1       8       1
       1       8       1       1       8       1       1       8       1       1
       8       1       1       8       1       1       8       1       1       8
       1       1       8       1       1       8       1       1       8       1
       1       8       1       1       8       1       1       8       1       1
       8       1       1       8       1       1       8       1       1       8
       1       1       8       1       1       8       1       1       8       1
       1       8       1       1       8       1       1       8       1       1
       8       1       1       8       1       1       8       1       1       8
       1       1       8       1       1       8       1       1       8       1
       1       8       1       1       8       1       1       8       1       1
       8       1       1       8       1       1       8       1       1       8
       1       1       8       1       1       8       1       1       8       1
       1       8       1       1       8       1       1       8       1       1
       8       1       1       8       1       1       8       1       1       8
       1       1       8       1       1       8       1       1       8       1
       1       8       1       1       8       1       1       8       1       1
       8       1       1       8       1       1       8       1       1       8
       1       1       8       1       1       8       1       1       8       1
       1       8       1       1       8       1       1       8       1       1
       8       1       1       8       1       1       8       1       1       8
       1       1       8       1       1       8       1       1       8       1
       1       8       1       1       8       1       1       8       1       1
       8       1       1       8       1       1       8       1       1       8
       1       1       8       1       1       8       1       1       8       1
       1       8       1       1       8       1       1       8       1       1
       8       1       1       8       1       1       8       1       1       8
       1       1       8       1       1       8       1       1       8       1
       1       8       1       1       8       1       1       8       1       1
       8       1       1       8       1       1       8       1       1       8
       1       1       8       1       1       8       1       1       8       1
       1       8       1       1       8       1       1       8       1       1
       8       1       1       8       1       1       8       1       1       8
       1       1       8       1       1       8       1       1       8       1
       1       8       1       1       8       1       1       8       1       1
       8       1       1       8       1       1       8       1       1       8
       1       1       8       1       1       8       1       1       8       1
       1       8       1       1       8       1       1       8       1       1
       8       1       1       8       1       1       8       1       1       8
       1       1       8       1       1       8       1       1       8       1
       1       8       1       1       8       1       1       8       1       1
       8       1       1       8       1       1       8       1       1       8
       1       1       8       1       1       8       1       1       8       1
       1       8       1       1       8       1       1       8       1       1
       8       1       1       8       1       1       8       1       1       8
       1       1       8       1       1       8       1       1       8       1
       1       8       1       1       8       1       1       8       1       1
       8       1       1       8       1       1       8       1       1       8
       1       1       8       1       1       8       1       1       8       1
       1       8       1       1       8       1       1       8       1       1
       8       1       1       8       1       1       8       1       1       8
       1       1       8       1       1       8       1       1       8       1
       1       8       1       1       8       1       1       8       1       1
       8       1       1       8       1       1       8       1       1       8
       1       1       8       1       1       8       1       1       8       1
       1       8       1       1       8       1       1       8       1       1
       8       1       1       8       1       1       8       1       1       8
       1       1       8       1       1       8       1       1       8       1
       1       8       1       1       8       1       1       8       1       1
       8       1       1       8       1       1       8       1       1       8
       1       1       8       1       1       8       1       1       8       1
       1       8       1       1       8       1       1       8       1       1
       8       1       1       8       1       1       8       1       1       8
       1       1       8       1       1       8       1       1       8       1
       1       8       1       1       8       1       1       8       1       1
       8       1       1       8       1       1       8       1       1       8
       1       1       8       1       1       8       1       1       8       1
       1       8       1       1       8       1       1       8       1       1
       8       1       1       8       1       1       8       1       1       8
       1       1       8       1       1       8       1       1       8       1
       1       8       1       1       8       1       1       8       1       1
       8       1       1       8       1       1       8       1       1       8
       1       1       8       1       1       8       1       1       8       1
       1       8       1       1       8       1       1       8       1       1
       8       1       1       8       1       1       8       1       1       8
       1       1       8       1       1       8       1       1       8       1
       1       8       1       1       8       1       1       8       1       1
       8       1       1       8       1       1       8       1       1       8
       1       1       8       1       1       8       1       1       8       1
       1       8       1       1       8       1       1       8       1       1
       8       1       1       8       1       1       8       1       1       8
       1       1       8       1       1       8       1       1       8       1
       1       8       1       1       8       1       1       8       1       1
       8       1       1       8       1       1       8       1       1       8
       1       1       8       1       1       8       1       1       8       1
       1       8       1       1       8       1       1       8       1       1
       8       1       1       8       1       1       8       1       1       8
       1       1       8       1       1       8       1       1       8       1
       1       8       1       1       8       1       1       8       1       1
       8       1       1       8       1       1       8       1       1       8
       1       1       8       1       1       8       1       1       8       1
       1       8       1       1       8       1       1       8       1       1
       8       1       1       8       1       1       8       1       1       8
       1       1       8       1       1       8       1       1       8       1
       1       8       1       1       8       1       1       8       1       1
       8       1       1       8       1       1       8       1       1       8
       1       1       8       1       1       8       1       1       8       1
       1       8       1       1       8       1       1       8       1       1
       8       1       1       8       1       1       8       1       1       8
       1       1       8       1       1       8       1       1       8       1
       1       8       1       1       8       1       1       8       1       1
       8       1       1       8       1       1       8       1       1       8
       1       1       8       1       1       8       1       1       8       1
       1       8       1       1       8       1       1       8       1       1
       8       1       1       8       1       1       8       1       1       8
       1       1       8       1       1       8       1       1       8       1
       1       8       1       1       8       1       1       8       1       1
       8       1       1       8       1       1       8       1       1       8
       1       1       8       1       1       8       1       1       8       1
       1       8       1       1       8       1       1       8       1       1
       8       1       1       8       1       1       8       1       1       8
       1       1       8       1       1       8       1       1       8       1
       1       8       1       1       8       1       1       8       1       1
       8       1       1       8       1       1       8       1       1       8
       1       1       8       1       1       8       1       1       8       1
       1       8       1       1       8       1       1       8       1       1
       8       1       1       8       1       1       8       1       1       8
       1       1       8       1       1       8       1       1       8       1
       1       8       1       1       8       1       1       8       1       1
       8       1       1       8       1       1       8       1       1       8
       1       1       8       1       1       8       1       1       8       1
       1       8       1       1       8       1       1       8       1       1
       8       1       1       8       1       1       8       1       1       8
       1       1       8       1       1       8       1       1       8       1
       1       8       1       1       8       1       1       8       1       1
       8       1       1       8       1       1       8       1       1       8
       1       1       8       1       1       8       1       1       8       1
       1       8       1       1       8       1       1       8       1       1
       8       1       1       8       1       1       8       1       1       8
       1       1       8       1       1       8       1       1       8       1
       1       8       1       1       8       1       1       8       1       1
       8       1       1       8       1       1       8       1       1       8
       1       1       8       1       1       8       1       1       8       1
       1       8       1       1       8       1       1       8       1       1
       8       1       1       8       1       1       8       1       1       8
       1       1       8       1       1       8       1       1       8       1
       1       8       1       1       8       1       1       8       1       1
       8       1       1       8       1       1       8       1       1       8
       1       1       8       1       1       8       1       1       8       1
       1       8       1       1       8       1       1       8       1       1
       8       1       1       8       1       1       8       1       1       8
       1       1       8       1       1       8       1       1       8       1
       1       8       1       1       8       1       1       8       1       1
       8       1       1       8       1       1       8       1       1       8
       1       1       8       1       1       8       1       1       8       1
       1       8       1       1       8       1       1       8       1       1
       8       1       1       8       1       1       8       1       1       8
       1       1       8       1       1       8       1       1       8       1
       1       8       1       1       8       1       1       8       1       1
       8       1       1       8       1       1       8       1       1       8
       1       1       8       1       1       8       1       1       8       1
       1       8       1       1       8       1       1       8       1       1
       8       1       1       8       1       1       8       1       1       8
       1       1       8       1       1       8       1       1       8       1
       1       8       1       1       8       1       1       8       1       1
       8       1       1       8       1       1       8       1       1       8
       1       1       8       1       1       8       1       1       8       1
       1       8       1       1       8       1       1       8       1       1
       8       1       1       8       1       1       8       1       1       8
       1       1       8       1       1       8       1       1       8       1
       1       8       1       1       8       1       1       8       1       1
       8       1       1       8       1       1       8       1       1       8
       1       1       8       1       1       8       1       1       8       1
       1       8       1       1       8       1       1       8       1       1
       8       1       1       8       1       1       8       1       1       8
       1       1       8       1       1       8       1       1       8       1
       1       8       1       1       8       1       1       8       1       1
       8       1       1       8       1       1       8       1       1       8
       1       1       8       1       1       8       1       1       8       1
       1       8       1       1       8       1       1       8       1       1
       8       1       1       8       1       1       8       1       1       8
       1       1       8       1       1       8       1       1       8       1
       1       8       1       1       8       1       1       8       1       1
       8       1       1       8       1       1       8       1       1       8
       1       1       8       1       1       8       1       1       8       1
       1       8       1       1       8       1       1       8       1       1
       8       1       1       8       1       1       8       1       1       8
       1       1       8       1       1       8       1       1       8       1
       1       8       1       1       8       1       1       8       1       1
       8       1       1       8       1       1       8       1       1       8
       1       1       8       1       1       8       1       1       8       1
       1       8       1       1       8       1       1       8       1       1
       8       1       1       8       1       1       8       1       1       8
       1       1       8       1       1       8       1       1       8       1
       1       8       1       1       8       1       1       8       1       1
       8       1       1       8       1       1       8       1       1       8
       1       1       8       1       1       8       1       1       8       1
       1       8       1       1       8       1       1       8       1       1
       8       1       1       8       1       1       8       1       1       8
       1       1       8       1       1       8       1       1       8       1
       1       8       1       1       8       1       1       8       1       1
       8       1       1       8       1       1       8       1       1       8
       1       1       8       1       1       8       1       1       8       1
       1       8       1       1       8       1       1       8       1       1
       8       1       1       8       1       1       8       1       1       8
       1       1       8       1       1       8       1       1       8       1
       1       8       1       1       8       1       1       8       1       1
       8       1       1       8       1       1       8       1       1       8
       1       1       8       1       1       8       1       1       8       1
       1       8       1       1       8       1       1       8       1       1
       8       1       1       8       1       1       8       1       1       8
       1       1       8       1       1       8       1       1       8       1
       1       8       1       1       8       1       1       8       1       1
       8       1       1       8       1       1       8       1       1       8
       1       1       8       1       1       8       1       1       8       1
       1       8       1       1       8       1       1       8       1       1
       8       1       1       8       1       1       8       1       1       8
       1       1       8       1       1       8       1       1       8       1
       1       8       1       1       8       1       1       8       1       1
       8       1       1       8       1       1       8       1       1       8
       1       1       8       1       1       8       1       1       8       1
       1       8       1       1       8       1       1       8       1       1
       8       1       1       8       1       1       8       1       1       8
       1       1       8       1       1       8       1       1       8       1
       1       8       1       1       8       1       1       8       1       1
       8       1       1       8       1       1       8       1       1       8
       1       1       8       1       1       8       1       1       8       1
       1       8       1       1       8       1       1       8       1       1
       8       1       1       8       1       1       8       1       1       8
       1       1       8       1       1       8       1       1       8       1
       1       8       1       1       8       1       1       8       1       1
       8       1       1       8       1       1       8       1       1       8
       1       1       8       1       1       8       1       1       8       1
       1       8       1       1       8       1       1       8       1       1
       8       1       1       8       1       1       8       1       1       8
       1       1       8       1       1       8       1       1       8       1
       1       8       1       1       8       1       1       8       1       1
       8       1       1       8       1       1       8       1       1       8
       1       1       8       1       1       8       1       1       8       1
       1       8       1       1       8       1       1       8       1       1
       8       1       1       8       1       1       8       1       1       8
       1       1       8       1       1       8       1       1       8       1
       1       8       1       1       8       1       1       8       1       1
       8       1       1       8       1       1       8       1       1       8
       1       1       8       1       1       8       1       1       8       1
       1       8       1       1       8       1       1       8       1       1
       8       1       1       8       1       1       8       1       1       8
       1       1       8       1       1       8       1       1       8       1
       1       8       1       1       8       1       1       8       1       1
       8       1       1       8       1       1       8       1       1       8
       1       1       8       1       1       8       1       1       8       1
       1       8       1       1       8       1       1       8       1       1
       8       1       1       8       1       1       8       1       1       8
       1       1       8       1       1       8       1       1       8       1
       1       8       1       1       8       1       1       8       1       1
       8       1       1       8       1       1       8       1       1       8
       1       1       8       1       1       8       1       1       8       1
       1       8       1       1       8       1       1       8       1       1
       8       1       1       8       1       1       8       1       1       8
       1       1       8       1       1       8       1       1       8       1
       1       8       1       1       8       1       1       8       1       1
       8       1       1       8       1       1       8       1       1       8
       1       1       8       1       1       8       1       1       8       1
       1       8       1       1       8       1       1       8       1       1
       8       1       1       8       1       1       8       1       1       8
       1       1       8       1       1       8       1       1       8       1
       1       8       1       1       8       1       1       8       1       1
       8       1       1       8       1       1       8       1       1       8
       1       1       8       1       1       8       1       1       8       1
       1       8       1       1       8       1       1       8       1       1
       8       1       1       8       1       1       8       1       1       8
       1       1       8       1       1       8       1       1       8       1
       1       8       1       1       8       1       1       8       1       1
       8       1       1       8       1       1       8       1       1       8
       1       1       8       1       1       8       1       1       8       1
       1       8       1       1       8       1       1       8       1       1
       8       1       1       8       1       1       8       1       1       8
       1       1       8       1       1       8       1       1       8       1
       1       8       1       1       8       1       1       8       1       1
       8       1       1       8       1       1       8       1       1       8
       1       1       8       1       1       8       1       1       8       1
       1       8       1       1       8       1       1       8       1       1
       8       1       1       8       1       1       8       1       1       8
       1       1       8       1       1       8       1       1       8       1
       1       8       1       1       8       1       1       8       1       1
       8       1       1       8       1       1       8       1       1       8
       1       1       8       1       1       8       1       1       8       1
       1       8       1       1       8       1       1       8       1       1
       8       1       1       8       1       1       8       1       1       8
       1       1       8       1       1       8       1       1       8       1
       1       8       1       1       8       1       1       8       1       1
       8       1       1       8       1       1       8       1       1       8
       1       1       8       1       1       8       1       1       8       1
       1       8       1       1       8       1       1       8       1       1
       8       1       1       8       1       1       8       1       1       8
       1       1       8       1       1       8       1       1       8       1
       1       8       1       1       8       1       1       8       1       1
       8       1       1       8       1       1       8       1       1       8
       1       1       8       1       1       8       1       1       8       1
       1       8       1       1       8       1       1       8       1       1
       8       1       1       8       1       1       8       1       1       8
       1       1       8       1       1       8       1       1       8       1
       1       8       1       1       8       1       1       8       1       1
       8       1       1       8       1       1       8       1       1       8
       1       1       8       1       1       8       1       1       8       1
       1       8       1       1       8       1       1       8       1       1
       8       1       1       8       1       1       8       1       1       8
       1       1       8       1       1       8       1       1       8       1
       1       8       1       1       8       1       1       8       1       1
       8       1       1       8       1       1       8       1       1       8
       1       1       8       1       1       8       1       1       8       1
       1       8       1       1       8       1       1       8       1       1
       8       1       1       8       1       1       8       1       1       8
       1       1       8       1       1       8       1       1       8       1
       1       8       1       1       8       1       1       8       1       1
       8       1       1       8       1       1       8       1       1       8
       1       1       8       1       1       8       1       1       8       1
       1       8       1       1       8       1       1       8       1       1
       8       1       1       8       1       1       8       1       1       8
       1       1       8       1       1       8       1       1       8       1
       1       8       1       1       8       1       1       8       1       1
       8       1       1       8       1       1       8       1       1       8
       1       1       8       1       1       8       1       1       8       1
       1       8       1       1       8       1       1       8       1       1
       8       1       1       8       1       1       8       1       1       8
       1       1       8       1       1       8       1       1       8       1
       1       8       1       1       8       1       1       8       1       1
       8       1       1       8       1       1       8       1       1       8
       1       1       8       1       1       8       1       1       8       1
       1       8       1       1       8       1       1       8       1       1
       8       1       1       8       1       1       8       1       1       8
       1       1       8       1       1       8       1       1       8       1
       1       8       1       1       8       1       1       8       1       1
       8       1       1       8       1       1       8       1       1       8
       1       1       8       1       1       8       1       1       8       1
       1       8       1       1       8       1       1       8       1       1
       8       1       1       8       1       1       8       1       1       8
       1       1       8       1       1       8       1       1       8       1
       1       8       1       1       8       1       1       8       1       1
       8       1       1       8       1       1       8       1       1       8
       1       1       8       1       1       8       1       1       8       1
       1       8       1       1       8       1       1       8       1       1
       8       1       1       8       1       1       8       1       1       8
       1       1       8       1       1       8       1       1       8       1
       1       8       1       1       8       1       1       8       1       1
       8       1       1       8       1       1       8       1       1       8
       1       1       8       1       1       8       1       1       8       1
       1       8       1       1       8       1       1       8       1       1
       8       1       1       8       1       1       8       1       1       8
       1       1       8       1       1       8       1       1       8       1
       1       8       1       1       8       1       1       8       1       1
       8       1       1       8       1       1       8       1       1       8
       1       1       8       1       1       8       1       1       8       1
       1       8       1       1       8       1       1       8       1       1
       8       1       1       8       1       1       8       1       1       8
       1       1       8       1       1       8       1       1       8       1
       1       8       1       1       8       1       1       8       1       1
       8       1       1       8       1       1       8       1       1       8
       1       1       8       1       1       8       1       1       8       1
       1       8       1       1       8       1       1       8       1       1
       8       1       1       8       1       1       8       1       1       8
       1       1       8       1       1       8       1       1       8       1
       1       8       1       1       8       1       1       8       1       1
       8       1       1       8       1       1       8       1       1       8
       1       1       8       1       1       8       1       1       8       1
       1       8       1       1       8       1       1       8       1       1
       8       1       1       8       1       1       8       1       1       8
       1       1       8       1       1       8       1       1       8       1
       1       8       1       1       8       1       1       8       1       1
       8       1       1       8       1       1       8       1       1       8
       1       1       8       1       1       8       1       1       8       1
       1       8       1       1       8       1       1       8       1       1
       8       1       1       8       1       1       8       1       1       8
       1       1       8       1       1       8       1       1       8       1
       1       8       1       1       8       1       1       8       1       1
       8       1       1       8       1       1       8       1       1       8
       1       1       8       1       1       8       1       1       8       1
       1       8       1       1       8       1       1       8       1       1
       8       1       1       8       1       1       8       1       1       8
       1       1       8       1       1       8       1       1       8       1
       1       8       1       1       8       1       1       8       1       1
       8       1       1       8       1       1       8       1       1       8
       1       1       8       1       1       8       1       1       8       1
       1       8       1       1       8       1       1       8       1       1
       8       1       1       8       1       1       8       1       1       8
       1       1       8       1       1       8       1       1       8       1
       1       8       1       1       8       1       1       8       1       1
       8       1       1       8       1       1       8       1       1       8
       1       1       8       1       1       8       1       1       8       1
       1       8       1       1       8       1       1       8       1       1
       8       1       1       8       1       1       8       1       1       8
       1       1       8       1       1       8       1       1       8       1
       1       8       1       1       8       1       1       8       1       1
       8       1       1       8       1       1       8       1       1       8
       1       1       8       1       1       8       1       1       8       1
       1       8       1       1       8       1       1       8       1       1
       8       1       1       8       1       1       8       1       1       8
       1       1       8       1       1       8       1       1       8       1
       1       8       1       1       8       1       1       8       1       1
       8       1       1       8       1       1       8       1       1       8
       1       1       8       1       1       8       1       1       8       1
       1       8       1       1       8       1       1       8       1       1
       8       1       1       8       1       1       8       1       1       8
       1       1       8       1       1       8       1       1       8       1
       1       8       1       1       8       1       1       8       1       1
       8       1       1       8       1       1       8       1       1       8
       1       1       8       1       1       8       1       1       8       1
       1       8       1       1       8       1       1       8       1       1
       8       1       1       8       1       1       8       1       1       8
       1       1       8       1       1       8       1       1       8       1
       1       8       1       1       8       1       1       8       1       1
       8       1       1       8       1       1       8       1       1       8
       1       1       8       1       1       8       1       1       8       1
       1       8       1       1       8       1       1       8       1       1
       8       1       1       8       1       1       8       1       1       8
       1       1       8       1       1       8       1       1       8       1
       1       8       1       1       8       1       1       8       1       1
       8       1       1       8       1       1       8       1       1       8
       1       1       8       1       1       8       1       1       8       1
       1       8       1       1       8       1       1       8       1       1
       8       1       1       8       1       1       8       1       1       8
       1       1       8       1       1       8       1       1       8       1
       1       8       1       1       8       1       1       8       1       1
       8       1       1       8       1       1       8       1       1       8
       1       1       8       1       1       8       1       1       8       1
       1       8       1       1       8       1       1       8       1       1
       8       1       1       8       1       1       8       1       1       8
       1       1       8       1       1       8       1       1       8       1
       1       8       1       1       8       1       1       8       1       1
       8       1       1       8       1       1       8       1       1       8
       1       1       8       1       1       8       1       1       8       1
       1       8       1       1       8       1       1       8       1       1
       8       1       1       8       1       1       8       1       1       8
       1       1       8       1       1       8       1       1       8       1
       1       8       1       1       8       1       1       8       1       1
       8       1       1       8       1       1       8       1       1       8
       1       1       8       1       1       8       1       1       8       1
       1       8       1       1       8       1       1       8       1       1
       8       1       1       8       1       1       8       1       1       8
       1       1       8       1       1       8       1       1       8       1
       1       8       1       1       8       1       1       8       1       1
       8       1       1       8       1       1       8       1       1       8
       1       1       8       1       1       8       1       1       8       1
       1       8       1       1       8       1       1       8       1       1
       8       1       1       8       1       1       8       1       1       8
       1       1       8       1       1       8       1       1       8       1
       1       8       1       1       8       1       1       8       1       1
       8       1       1       8       1       1       8       1       1       8
       1       1       8       1       1       8       1       1       8       1
       1       8       1       1       8       1       1       8       1       1
       8       1       1       8       1       1       8       1       1       8
       1       1       8       1       1       8       1       1       8       1
       1       8       1       1       8       1       1       8       1       1
       8       1       1       8       1       1       8       1       1       8
       1       1       8       1       1       8       1       1       8       1
       1       8       1       1       8       1       1       8       1       1
       8       1       1       8       1       1       8       1       1       8
       1       1       8       1       1       8       1       1       8       1
       1       8       1       1       8       1       1       8       1       1
       8       1       1       8       1       1       8       1       1       8
       1       1       8       1       1       8       1       1       8       1
       1       8       1       1       8       1       1       8       1       1
       8       1       1       8       1       1       8       1       1       8
       1       1       8       1       1       8       1       1       8       1
       1       8       1       1       8       1       1       8       1       1
       8       1       1       8       1       1       8       1       1       8
       1       1       8       1       1       8       1       1       8       1
       1       8       1       1       8       1       1       8       1       1
       8       1       1       8       1       1       8       1       1       8
       1       1       8       1       1       8       1       1       8       1
       1       8       1       1       8       1       1       8       1       1
       8       1       1       8       1       1       8       1       1       8
       1       1       8       1       1       8       1       1       8       1
       1       8       1       1       8       1       1       8       1       1
       8       1       1       8       1       1       8       1       1       8
       1       1       8       1       1       8       1       1       8       1
       1       8       1       1       8       1       1       8       1       1
       8       1       1       8       1       1       8       1       1       8
       1       1       8       1       1       8       1       1       8       1
       1       8       1       1       8       1       1       8       1       1
       8       1       1       8       1       1       8       1       1       8
       1       1       8       1       1       8       1       1       8       1
       1       8       1       1       8       1       1       8       1       1
       8       1       1       8       1       1       8       1       1       8
       1       1       8       1       1       8       1       1       8       1
       1       8       1       1       8       1       1       8       1       1
       8       1       1       8       1       1       8       1       1       8
       1       1       8       1       1       8       1       1       8       1
       1       8       1       1       8       1       1       8       1       1
       8       1       1       8       1       1       8       1       1       8
       1       1       8       1       1       8       1       1       8       1
       1       8       1       1       8       1       1       8       1       1
       8       1       1       8       1       1       8       1       1       8
       1       1       8       1       1       8       1       1       8       1
       1       8       1       1       8       1       1       8       1       1
       8       1       1       8       1       1       8       1       1       8
       1       1       8       1       1       8       1       1       8       1
       1       8       1       1       8       1       1       8       1       1
       8       1       1       8       1       1       8       1       1       8
       1       1       8       1       1       8       1       1       8       1
       1       8       1       1       8       1       1       8       1       1
       8       1       1       8       1       1       8       1       1       8
       1       1       8       1       1       8       1       1       8       1
       1       8       1       1       8       1       1       8       1       1
       8       1       1       8       1       1       8       1       1       8
       1       1       8       1       1       8       1       1       8       1
       1       8       1       1       8       1       1       8       1       1
       8       1       1       8       1       1       8       1       1       8
       1       1       8       1       1       8       1       1       8       1
       1       8       1       1       8       1       1       8       1       1
       8       1       1       8       1       1       8       1       1       8
       1       1       8       1       1       8       1       1       8       1
       1       8       1       1       8       1       1       8       1       1
       8       1       1       8       1       1       8       1       1       8
       1       1       8       1       1       8       1       1       8       1
       1       8       1       1       8       1       1       8       1       1
       8       1       1       8       1       1       8       1       1       8
       1       1       8       1       1       8       1       1       8       1
       1       8       1       1       8       1       1       8       1       1
       8       1       1       8       1       1       8       1       1       8
       1       1       8       1       1       8       1       1       8       1
       1       8       1       1       8       1       1       8       1       1
       8       1       1       8       1       1       8       1       1       8
       1       1       8       1       1       8       1       1       8       1
       1       8       1       1       8       1       1       8       1       1
       8       1       1       8       1       1       8       1       1       8
       1       1       8       1       1       8       1       1       8       1
       1       8       1       1       8       1       1       8       1       1
       8       1       1       8       1       1       8       1       1       8
       1       1       8       1       1       8       1       1       8       1
       1       8       1       1       8       1       1       8       1       1
       8       1       1       8       1       1       8       1       1       8
       1       1       8       1       1       8       1       1       8       1
       1       8       1       1       8       1       1       8       1       1
       8       1       1       8       1       1       8       1       1       8
       1       1       8       1       1       8       1       1       8       1
       1       8       1       1       8       1       1       8       1       1
       8       1       1       8       1       1       8       1       1       8
       1       1       8       1       1       8       1       1       8       1
       1       8       1       1       8       1       1       8       1       1
       8       1       1       8       1       1       8       1       1       8
       1       1       8       1       1       8       1       1       8       1
       1       8       1       1       8       1       1       8       1       1
       8       1       1       8       1       1       8       1       1       8
       1       1       8       1       1       8       1       1       8       1
       1       8       1       1       8       1       1       8       1       1
       8       1       1       8       1       1       8       1       1       8
       1       1       8       1       1       8       1       1       8       1
       1       8       1       1       8       1       1       8       1       1
       8       1       1       8       1       1       8       1       1       8
       1       1       8       1       1       8       1       1       8       1
       1       8       1       1       8       1       1       8       1       1
       8       1       1       8       1       1       8       1       1       8
       1       1       8       1       1       8       1       1       8       1
       1       8       1       1       8       1       1       8       1       1
       8       1       1       8       1       1       8       1       1       8
       1       1       8       1       1       8       1       1       8       1
       1       8       1       1       8       1       1       8       1       1
       8       1       1       8       1       1       8       1       1       8
       1       1       8       1       1       8       1       1       8       1
       1       8       1       1       8       1       1       8       1       1
       8       1       1       8       1       1       8       1       1       8
       1       1       8       1       1       8       1       1       8       1
       1       8       1       1       8       1       1       8       1       1
       8       1       1       8       1       1       8       1       1       8
       1       1       8       1       1       8       1       1       8       1
       1       8       1       1       8       1       1       8       1       1
       8       1       1       8       1       1       8       1       1       8
       1       1       8       1       1       8       1       1       8       1
       1       8       1       1       8       1       1       8       1       1
       8       1       1       8       1       1       8       1       1       8
       1       1       8       1       1       8       1       1       8       1
       1       8       1       1       8       1       1       8       1       1
       8       1       1       8       1       1       8       1       1       8
       1       1       8       1       1       8       1       1       8       1
       1       8       1       1       8       1       1       8       1       1
       8       1       1       8       1       1       8       1       1       8
       1       1       8       1       1       8       1       1       8       1
       1       8       1       1       8       1       1       8       1       1
       8       1       1       8       1       1       8       1       1       8
       1       1       8       1       1       8       1       1       8       1
       1       8       1       1       8       1       1       8       1       1
       8       1       1       8       1       1       8       1       1       8
       1       1       8       1       1       8       1       1       8       1
       1       8       1       1       8       1       1       8       1       1
       8       1       1       8       1       1       8       1       1       8
       1       1       8       1       1       8       1       1       8       1
       1       8       1       1       8       1       1       8       1       1
       8       1       1       8       1       1       8       1       1       8
       1       1       8       1       1       8       1       1       8       1
       1       8       1       1       8       1       1       8       1       1
       8       1       1       8       1       1       8       1       1       8
       1       1       8       1       1       8       1       1       8       1
       1       8       1       1       8       1       1       8       1       1
       8       1       1       8       1       1       8       1       1       8
       1       1       8       1       1       8       1       1       8       1
       1       8       1       1       8       1       1       8       1       1
       8       1       1       8       1       1       8       1       1       8
       1       1       8       1       1       8       1       1       8       1
       1       8       1       1       8       1       1       8       1       1
       8       1       1       8       1       1       8       1       1       8
       1       1       8       1       1       8       1       1       8       1
       1       8       1       1       8       1       1       8       1       1
       8       1       1       8       1       1       8       1       1       8
       1       1       8       1       1       8       1       1       8       1
       1       8       1       1       8       1       1       8       1       1
       8       1       1       8       1       1       8       1       1       8
       1       1       8       1       1       8       1       1       8       1
       1       8       1       1       8       1       1       8       1       1
       8       1       1       8       1       1       8       1       1       8
       1       1       8       1       1       8       1       1       8       1
       1       8       1       1       8       1       1       8       1       1
       8       1       1       8       1       1       8       1       1       8
       1       1       8       1       1       8       1       1       8       1
       1       8       1       1       8       1       1       8       1       1
       8       1       1       8       1       1       8       1       1       8
       1       1       8       1       1       8       1       1       8       1
       1       8       1       1       8       1       1       8       1       1
       8       1       1       8       1       1       8       1       1       8
       1       1       8       1       1       8       1       1       8       1
       1       8       1       1       8       1       1       8       1       1
       8       1       1       8       1       1       8       1       1       8
       1       1       8       1       1       8       1       1       8       1
       1       8       1       1       8       1       1       8       1       1
       8       1       1       8       1       1       8       1       1       8
       1       1       8       1       1       8       1       1       8       1
       1       8       1       1       8       1       1       8       1       1
       8       1       1       8       1       1       8       1       1       8
       1       1       8       1       1       8       1       1       8       1
       1       8       1       1       8       1       1       8       1       1
       8       1       1       8       1       1       8       1       1       8
       1       1       8       1       1       8       1       1       8       1
       1       8       1       1       8       1       1       8       1       1
       8       1       1       8       1       1       8       1       1       8
       1       1       8       1       1       8       1       1       8       1
       1       8       1       1       8       1       1       8       1       1
       8       1       1       8       1       1       8       1       1       8
       1       1       8       1       1       8       1       1       8       1
       1       8       1       1       8       1       1       8       1       1
       8       1       1       8       1       1       8       1       1       8
       1       1       8       1       1       8       1       1       8       1
       1       8       1       1       8       1       1       8       1       1
       8       1       1       8       1       1       8       1       1       8
       1       1       8       1       1       8       1       1       8       1
       1       8       1       1       8       1       1       8       1       1
       8       1       1       8       1       1       8       1       1       8
       1       1       8       1       1       8       1       1       8       1
       1       8       1       1       8       1       1       8       1       1
       8       1       1       8       1       1       8       1       1       8
       1       1       8       1       1       8       1       1       8       1
       1       8       1       1       8       1       1       8       1       1
       8       1       1       8       1       1       8       1       1       8
       1       1       8       1       1       8       1       1       8       1
       1       8       1       1       8       1       1       8       1       1
       8       1       1       8       1       1       8       1       1       8
       1       1       8       1       1       8       1       1       8       1
       1       8       1       1       8       1       1       8       1       1
       8       1       1       8       1       1       8       1       1       8
       1       1       8       1       1       8       1       1       8       1
       1       8       1       1       8       1       1       8       1       1
       8       1       1       8       1       1       8       1       1       8
       1       1       8       1       1       8       1       1       8       1
       1       8       1       1       8       1       1       8       1       1
       8       1       1       8       1       1       8       1       1       8
       1       1       8       1       1       8       1       1       8       1
       1       8       1       1       8       1       1       8       1       1
       8       1       1       8       1       1       8       1       1       8
       1       1       8       1       1       8       1       1       8       1
       1       8       1       1       8       1       1       8       1       1
       8       1       1       8       1       1       8       1       1       8
       1       1       8       1       1       8       1       1       8       1
       1       8       1       1       8       1       1       8       1       1
       8       1       1       8       1       1       8       1       1       8
       1       1       8       1       1       8       1       1       8       1
       1       8       1       1       8       1       1       8       1       1
       8       1       1       8       1       1       8       1       1       8
       1       1       8       1       1       8       1       1       8       1
       1       8       1       1       8       1       1       8       1       1
       8       1       1       8       1       1       8       1       1       8
       1       1       8       1       1       8       1       1       8       1
       1       8       1       1       8       1       1       8       1       1
       8       1       1       8       1       1       8       1       1       8
       1       1       8       1       1       8       1       1       8       1
       1       8       1       1       8       1       1       8       1       1
       8       1       1       8       1       1       8       1       1       8
       1       1       8       1       1       8       1       1       8       1
       1       8       1       1       8       1       1       8       1       1
       8       1       1       8       1       1       8       1       1       8
       1       1       8       1       1       8       1       1       8       1
       1       8       1       1       8       1       1       8       1       1
       8       1       1       8       1       1       8       1       1       8
       1       1       8       1       1       8       1       1       8       1
       1       8       1       1       8       1       1       8       1       1
       8       1       1       8       1       1       8       1       1       8
       1       1       8       1       1       8       1       1       8       1
       1       8       1       1       8       1       1       8       1       1
       8       1       1       8       1       1       8       1       1       8
       1       1       8       1       1       8       1       1       8       1
       1       8       1       1       8       1       1       8       1       1
       8       1       1       8       1       1       8       1       1       8
       1       1       8       1       1       8       1       1       8       1
       1       8       1       1       8       1       1       8       1       1
       8       1       1       8       1       1       8       1       1       8
       1       1       8       1       1       8       1       1       8       1
       1       8       1       1       8       1       1       8       1       1
       8       1       1       8       1       1       8       1       1       8
       1       1       8       1       1       8       1       1       8       1
       1       8       1       1       8       1       1       8       1       1
       8       1       1       8       1       1       8       1       1       8
       1       1       8       1       1       8       1       1       8       1
       1       8       1       1       8       1       1       8       1       1
       8       1       1       8       1       1       8       1       1       8
       1       1       8       1       1       8       1       1       8       1
       1       8       1       1       8       1       1       8       1       1
       8       1       1       8       1       1       8       1       1       8
       1       1       8       1       1       8       1       1       8       1
       1       8       1       1       8       1       1       8       1       1
       8       1       1       8       1       1       8       1       1       8
       1       1       8       1       1       8       1       1       8       1
       1       8       1       1       8       1       1       8       1       1
       8       1       1       8       1       1       8       1       1       8
       1       1       8       1       1       8       1       1       8       1
       1       8       1       1       8       1       1       8       1       1
       8       1       1       8       1       1       8       1       1       8
       1       1       8       1       1       8       1       1       8       1
       1       8       1       1       8       1       1       8       1       1
       8       1       1       8       1       1       8       1       1       8
       1       1       8       1       1       8       1       1       8       1
       1       8       1       1       8       1       1       8       1       1
       8       1       1       8       1       1       8       1       1       8
       1       1       8       1       1       8       1       1       8       1
       1       8       1       1       8       1       1       8       1       1
       8       1       1       8       1       1       8       1       1       8
       1       1       8       1       1       8       1       1       8       1
       1       8       1       1       8       1       1       8       1       1
       8       1       1       8       1       1       8       1       1       8
       1       1       8       1       1       8       1       1       8       1
       1       8       1       1       8       1       1       8       1       1
       8       1       1       8       1       1       8       1       1       8
       1       1       8       1       1       8       1       1       8       1
       1       8       1       1       8       1       1       8       1       1
       8       1       1       8       1       1       8       1       1       8
       1       1       8       1       1       8       1       1       8       1
       1       8       1       1       8       1       1       8       1       1
       8       1       1       8       1       1       8       1       1       8
       1       1       8       1       1       8       1       1       8       1
       1       8       1       1       8       1       1       8       1       1
       8       1       1       8       1       1       8       1       1       8
       1       1       8       1       1       8       1       1       8       1
       1       8       1       1       8       1       1       8       1       1
       8       1       1       8       1       1       8       1       1       8
       1       1       8       1       1       8       1       1       8       1
       1       8       1       1       8       1       1       8       1       1
       8       1       1       8       1       1       8       1       1       8
       1       1       8       1       1       8       1       1       8       1
       1       8       1       1       8       1       1       8       1       1
       8       1       1       8       1       1       8       1       1       8
       1       1       8       1       1       8       1       1       8       1
       1       8       1       1       8       1       1       8       1       1
       8       1       1       8       1       1       8       1       1       8
       1       1       8       1       1       8       1       1       8       1
       1       8       1       1       8       1       1       8       1       1
       8       1       1       8       1       1       8       1       1       8
       1       1       8       1       1       8       1       1       8       1
       1       8       1       1       8       1       1       8       1       1
       8       1       1       8       1       1       8       1       1       8
       1       1       8       1       1       8       1       1       8       1
       1       8       1       1       8       1       1       8       1       1
       8       1       1       8       1       1       8       1       1       8
       1       1       8       1       1       8       1       1       8       1
       1       8       1       1       8       1       1       8       1       1
       8       1       1       8       1       1       8       1       1       8
       1       1       8       1       1       8       1       1       8       1
       1       8       1       1       8       1       1       8       1       1
       8       1       1       8       1       1       8       1       1       8
       1       1       8       1       1       8       1       1       8       1
       1       8       1       1       8       1       1       8       1       1
       8       1       1       8       1       1       8       1       1       8
       1       1       8       1       1       8       1       1       8       1
       1       8       1       1       8       1       1       8       1       1
       8       1       1       8       1       1       8       1       1       8
       1       1       8       1       1       8       1       1       8       1
       1       8       1       1       8       1       1       8       1       1
       8       1       1       8       1       1       8       1       1       8
       1       1       8       1       1       8       1       1       8       1
       1       8       1       1       8       1       1       8       1       1
       8       1       1       8       1       1       8       1       1       8
       1       1       8       1       1       8       1       1       8       1
       1       8       1       1       8       1       1       8       1       1
       8       1       1       8       1       1       8       1       1       8
       1       1       8       1       1       8       1       1       8       1
       1       8       1       1       8       1       1       8       1       1
       8       1       1       8       1       1       8       1       1       8
       1       1       8       1       1       8       1       1       8       1
       1       8       1       1       8       1       1       8       1       1
       8       1       1       8       1       1       8       1       1       8
       1       1       8       1       1       8       1       1       8       1
       1       8       1       1       8       1       1       8       1       1
       8       1       1       8       1       1       8       1       1       8
       1       1       8       1       1       8       1       1       8       1
       1       8       1       1       8       1       1       8       1       1
       8       1       1       8       1       1       8       1       1       8
       1       1       8       1       1       8       1       1       8       1
       1       8       1       1       8       1       1       8       1       1
       8       1       1       8       1       1       8       1       1       8
       1       1       8       1       1       8       1       1       8       1
       1       8       1       1       8       1       1       8       1       1
       8       1       1       8       1       1       8       1       1       8
       1       1       8       1       1       8       1       1       8       1
       1       8       1       1       8       1       1       8       1       1
       8       1       1       8       1       1       8       1       1       8
       1       1       8       1       1       8       1       1       8       1
       1       8       1       1       8       1       1       8       1       1
       8       1       1       8       1       1       8       1       1       8
       1       1       8       1       1       8       1       1       8       1
       1       8       1       1       8       1       1       8       1       1
       8       1       1       8       1       1       8       1       1       8
       1       1       8       1       1       8       1       1       8       1
       1       8       1       1       8       1       1       8       1       1
       8       1       1       8       1       1       8       1       1       8
       1       1       8       1       1       8       1       1       8       1
       1       8       1       1       8       1       1       8       1       1
       8       1       1       8       1       1       8       1       1       8
       1       1       8       1       1       8       1       1       8       1
       1       8       1       1       8       1       1       8       1       1
       8       1       1       8       1       1       8       1       1       8
       1       1       8       1       1       8       1       1       8       1
       1       8       1       1       8       1       1       8       1       1
       8       1       1       8       1       1       8       1       1       8
       1       1       8       1       1       8       1       1       8       1
       1       8       1       1       8       1       1       8       1       1
       8       1       1       8       1       1       8       1       1       8
       1       1       8       1       1       8       1       1       8       1
       1       8       1       1       8       1       1       8       1       1
       8       1       1       8       1       1       8       1       1       8
       1       1       8       1       1       8       1       1       8       1
       1       8       1       1       8       1       1       8       1       1
       8       1       1       8       1       1       8       1       1       8
       1       1       8       1       1       8       1       1       8       1
       1       8       1       1       8       1       1       8       1       1
       8       1       1       8       1       1       8       1       1       8
       1       1       8       1       1       8       1       1       8       1
       1       8       1       1       8       1       1       8       1       1
       8       1       1       8       1       1       8       1       1       8
       1       1       8       1       1       8       1       1       8       1
       1       8       1       1       8       1       1       8       1       1
       8       1       1       8       1       1       8       1       1       8
       1       1       8       1       1       8       1       1       8       1
       1       8       1       1       8       1       1       8       1       1
       8       1       1       8       1       1       8       1       1       8
       1       1       8       1       1       8       1       1       8       1
       1       8       1       1       8       1       1       8       1       1
       8       1       1       8       1       1       8       1       1       8
       1       1       8       1       1       8       1       1       8       1
       1       8       1       1       8       1       1       8       1       1
       8       1       1       8       1       1       8       1       1       8
       1       1       8       1       1       8       1       1       8       1
       1       8       1       1       8       1       1       8       1       1
       8       1       1       8       1       1       8       1       1       8
       1       1       8       1       1       8       1       1       8       1
       1       8       1       1       8       1       1       8       1       1
       8       1       1       8       1       1       8       1       1       8
       1       1       8       1       1       8       1       1       8       1
       1       8       1       1       8       1       1       8       1       1
       8       1       1       8       1       1       8       1       1       8
       1       1       8       1       1       8       1       1       8       1
       1       8       1       1       8       1       1       8       1       1
       8       1       1       8       1       1       8       1       1       8
       1       1       8       1       1       8       1       1       8       1
       1       8       1       1       8       1       1       8       1       1
       8       1       1       8       1       1       8       1       1       8
       1       1       8       1       1       8       1       1       8       1
       1       8       1       1       8       1       1       8       1       1
       8       1       1       8       1       1       8       1       1       8
       1       1       8       1       1       8       1       1       8       1
       1       8       1       1       8       1       1       8       1       1
       8       1       1       8       1       1       8       1       1       8
       1       1       8       1       1       8       1       1       8       1
       1       8       1       1       8       1       1       8       1       1
       8       1       1       8       1       1       8       1       1       8
       1       1       8       1       1       8       1       1       8       1
       1       8       1       1       8       1       1       8       1       1
       8       1       1       8       1       1       8       1       1       8
       1       1       8       1       1       8       1       1       8       1
       1       8       1       1       8       1       1       8       1       1
       8       1       1       8       1       1       8       1       1       8
       1       1       8       1       1       8       1       1       8       1
       1       8       1       1       8       1       1       8       1       1
       8       1       1       8       1       1       8       1       1       8
       1       1       8       1       1       8       1       1       8       1
       1       8       1       1       8       1       1       8       1       1
       8       1       1       8       1       1       8       1       1       8
       1       1       8       1       1       8       1       1       8       1
       1       8       1       1       8       1       1       8       1       1
       8       1       1       8       1       1       8       1       1       8
       1       1       8       1       1       8       1       1       8       1
       1       8       1       1       8       1       1       8       1       1
       8       1       1       8       1       1       8       1       1       8
       1       1       8       1       1       8       1       1       8       1
       1       8       1       1       8       1       1       8       1       1
       8       1       1       8       1       1       8       1       1       8
       1       1       8       1       1       8       1       1       8       1
       1       8       1       1       8       1       1       8       1       1
       8       1       1       8       1       1       8       1       1       8
       1       1       8       1       1       8       1       1       8       1
       1       8       1       1       8       1       1       8       1       1
       8       1       1       8       1       1       8       1       1       8
       1       1       8       1       1       8       1       1       8       1
       1       8       1       1       8       1       1       8       1       1
       8       1       1       8       1       1       8       1       1       8
       1       1       8       1       1       8       1       1       8       1
       1       8       1       1       8       1       1       8       1       1
       8       1       1       8       1       1       8       1       1       8
       1       1       8       1       1       8       1       1       8       1
       1       8       1       1       8       1       1       8       1       1
       8       1       1       8       1       1       8       1       1       8
       1       1       8       1       1       8       1       1       8       1
       1       8       1       1       8       1       1       8       1       1
       8       1       1       8       1       1       8       1       1       8
       1       1       8       1       1       8       1       1       8       1
       1       8       1       1       8       1       1       8       1       1
       8       1       1       8       1       1       8       1       1       8
       1       1       8       1       1       8       1       1       8       1
       1       8       1       1       8       1       1       8       1       1
       8       1       1       8       1       1       8       1       1       8
       1       1       8       1       1       8       1       1       8       1
       1       8       1       1       8       1       1       8       1       1
       8       1       1       8       1       1       8       1       1       8
       1       1       8       1       1       8       1       1       8       1
       1       8       1       1       8       1       1       8       1       1
       8       1       1       8       1       1       8       1       1       8
       1       1       8       1       1       8       1       1       8       1
       1       8       1       1       8       1       1       8       1       1
       8       1       1       8       1       1       8       1       1       8
       1       1       8       1       1       8       1       1       8       1
       1       8       1       1       8       1       1       8       1       1
       8       1       1       8       1       1       8       1       1       8
       1       1       8       1       1       8       1       1       8       1
       1       8       1       1       8       1       1       8       1       1
       8       1       1       8       1       1       8       1       1       8
       1       1       8       1       1       8       1       1       8       1
       1       8       1       1       8       1       1       8       1       1
       8       1       1       8       1       1       8       1       1       8
       1       1       8       1       1       8       1       1       8       1
       1       8       1       1       8       1       1       8       1       1
       8       1       1       8       1       1       8       1       1       8
       1       1       8       1       1       8       1       1       8       1
       1       8       1       1       8       1       1       8       1       1
       8       1       1       8       1       1       8       1       1       8
       1       1       8       1       1       8       1       1       8       1
       1       8       1       1       8       1       1       8       1       1
       8       1       1       8       1       1       8       1       1       8
       1       1       8       1       1       8       1       1       8       1
       1       8       1       1       8       1       1       8       1       1
       8       1       1       8       1       1       8       1       1       8
       1       1       8       1       1       8       1       1       8       1
       1       8       1       1       8       1       1       8       1       1
       8       1       1       8       1       1       8       1       1       8
       1       1       8       1       1       8       1       1       8       1
       1       8       1       1       8       1       1       8       1       1
       8       1       1       8       1       1       8       1       1       8
       1       1       8       1       1       8       1       1       8       1
       1       8       1       1       8       1       1       8       1       1
       8       1       1       8       1       1       8       1       1       8
       1       1       8       1       1       8       1       1       8       1
       1       8       1       1       8       1       1       8       1       1
       8       1       1       8       1       1       8       1       1       8
       1       1       8       1       1       8       1       1       8       1
       1       8       1       1       8       1       1       8       1       1
       8       1       1       8       1       1       8       1       1       8
       1       1       8       1       1       8       1       1       8       1
       1       8       1       1       8       1       1       8       1       1
       8       1       1       8       1       1       8       1       1       8
       1       1       8       1       1       8       1       1       8       1
       1       8       1       1       8       1       1       8       1       1
       8       1       1       8       1       1       8       1       1       8
       1       1       8       1       1       8       1       1       8       1
       1       8       1       1       8       1       1       8       1       1
       8       1       1       8       1       1       8       1       1       8
       1       1       8       1       1       8       1       1       8       1
       1       8       1       1       8       1       1       8       1       1
       8       1       1       8       1       1       8       1       1       8
       1       1       8       1       1       8       1       1       8       1
       1       8       1       1       8       1       1       8       1       1
       8       1       1       8       1       1       8       1       1       8
       1       1       8       1       1       8       1       1       8       1
       1       8       1       1       8       1       1       8       1       1
       8       1       1       8       1       1       8       1       1       8
       1       1       8       1       1       8       1       1       8       1
       1       8       1       1       8       1       1       8       1       1
       8       1       1       8       1       1       8       1       1       8
       1       1       8       1       1       8       1       1       8       1
       1       8       1       1       8       1       1       8       1       1
       8       1       1       8       1       1       8       1       1       8
       1       1       8       1       1       8       1       1       8       1
       1       8       1       1       8       1       1       8       1       1
       8       1       1       8       1       1       8       1       1       8
       1       1       8       1       1       8       1       1       8       1
       1       8       1       1       8       1       1       8       1       1
       8       1       1       8       1       1       8       1       1       8
       1       1       8       1       1       8       1       1       8       1
       1       8       1       1       8       1       1       8       1       1
       8       1       1       8       1       1       8       1       1       8
       1       1       8       1       1       8       1       1       8       1
       1       8       1       1       8       1       1       8       1       1
       8       1       1       8       1       1       8       1       1       8
       1       1       8       1       1       8       1       1       8       1
       1       8       1       1       8       1       1       8       1       1
       8       1       1       8       1       1       8       1       1       8
       1       1       8       1       1       8       1       1       8       1
       1       8       1       1       8       1       1       8       1       1
       8       1       1       8       1       1       8       1       1       8
       1       1       8       1       1       8       1       1       8       1
       1       8       1       1       8       1       1       8       1       1
       8       1       1       8       1       1       8       1       1       8
       1       1       8       1       1       8       1       1       8       1
       1       8       1       1       8       1       1       8       1       1
       8       1       1       8       1       1       8       1       1       8
       1       1       8       1       1       8       1       1       8       1
       1       8       1       1       8       1       1       8       1       1
       8       1       1       8       1       1       8       1       1       8
       1       1       8       1       1       8       1       1       8       1
       1       8       1       1       8       1       1       8       1       1
       8       1       1       8       1       1       8       1       1       8
       1       1       8       1       1       8       1       1       8       1
       1       8       1       1       8       1       1       8       1       1
       8       1       1       8       1       1       8       1       1       8
       1       1       8       1       1       8       1       1       8       1
       1       8       1       1       8       1       1       8       1       1
       8       1       1       8       1       1       8       1       1       8
       1       1       8       1       1       8       1       1       8       1
       1       8       1       1       8       1       1       8       1       1
       8       1       1       8       1       1       8       1       1       8
       1       1       8       1       1       8       1       1       8       1
       1       8       1       1       8       1       1       8       1       1
       8       1       1       8       1       1       8       1       1       8
       1       1       8       1       1       8       1       1       8       1
       1       8       1       1       8       1       1       8       1       1
       8       1       1       8       1       1       8       1       1       8
       1       1       8       1       1       8       1       1       8       1
       1       8       1       1       8       1       1       8       1       1
       8       1       1       8       1       1       8       1       1       8
       1       1       8       1       1       8       1       1       8       1
       1       8       1       1       8       1       1       8       1       1
       8       1       1       8       1       1       8       1       1       8
       1       1       8       1       1       8       1       1       8       1
       1       8       1       1       8       1       1       8       1       1
       8       1       1       8       1       1       8       1       1       8
       1       1       8       1       1       8       1       1       8       1
       1       8       1       1       8       1       1       8       1       1
       8       1       1       8       1       1       8       1       1       8
       1       1       8       1       1       8       1       1       8       1
       1       8       1       1       8       1       1       8       1       1
       8       1       1       8       1       1       8       1       1       8
       1       1       8       1       1       8       1       1       8       1
       1       8       1       1       8       1       1       8       1       1
       8       1       1       8       1       1       8       1       1       8
       1       1       8       1       1       8       1       1       8       1
       1       8       1       1       8       1       1       8       1       1
       8       1       1       8       1       1       8       1       1       8
       1       1       8       1       1       8       1       1       8       1
       1       8       1       1       8       1       1       8       1       1
       8       1       1       8       1       1       8       1       1       8
       1       1       8       1       1       8       1       1       8       1
       1       8       1       1       8       1       1       8       1       1
       8       1       1       8       1       1       8       1       1       8
       1       1       8       1       1       8       1       1       8       1
       1       8       1       1       8       1       1       8       1       1
       8       1       1       8       1       1       8       1       1       8
       1       1       8       1       1       8       1       1       8       1
       1       8       1       1       8       1       1       8       1       1
       8       1       1       8       1       1       8       1       1       8
       1       1       8       1       1       8       1       1       8       1
       1       8       1       1       8       1       1       8       1       1
       8       1       1       8       1       1       8       1       1       8
       1       1       8       1       1       8       1       1       8       1
       1       8       1       1       8       1       1       8       1       1
       8       1       1       8       1       1       8       1       1       8
       1       1       8       1       1       8       1       1       8       1
       1       8       1       1       8       1       1       8       1       1
       8       1       1       8       1       1       8       1       1       8
       1       1       8       1       1       8       1       1       8       1
       1       8       1       1       8       1       1       8       1       1
       8       1       1       8       1       1       8       1       1       8
       1       1       8       1       1       8       1       1       8       1
       1       8       1       1       8       1       1       8       1       1
       8       1       1       8       1       1       8       1       1       8
       1       1       8       1       1       8       1       1       8       1
       1       8       1       1       8       1       1       8       1       1
       8       1       1       8       1       1       8       1       1       8
       1       1       8       1       1       8       1       1       8       1
       1       8       1       1       8       1       1       8       1       1
       8       1       1       8       1       1       8       1       1       8
       1       1       8       1       1       8       1       1       8       1
       1       8       1       1       8       1       1       8       1       1
       8       1       1       8       1       1       8       1       1       8
       1       1       8       1       1       8       1       1       8       1
       1       8       1       1       8       1       1       8       1       1
       8       1       1       8       1       1       8       1       1       8
       1       1       8       1       1       8       1       1       8       1
       1       8       1       1       8       1       1       8       1       1
       8       1       1       8       1       1       8       1       1       8
       1       1       8       1       1       8       1       1       8       1
       1       8       1       1       8       1       1       8       1       1
       8       1       1       8       1       1       8       1       1       8
       1       1       8       1       1       8       1       1       8       1
       1       8       1       1       8       1       1       8       1       1
       8       1       1       8       1       1       8       1       1       8
       1       1       8       1       1       8       1       1       8       1
       1       8       1       1       8       1       1       8       1       1
       8       1       1       8       1       1       8       1       1       8
       1       1       8       1       1       8       1       1       8       1
       1       8       1       1       8       1       1       8       1       1
       8       1       1       8       1       1       8       1       1       8
       1       1       8       1       1       8       1       1       8       1
       1       8       1       1       8       1       1       8       1       1
       8       1       1       8       1       1       8       1       1       8
       1       1       8       1       1       8       1       1       8       1
       1       8       1       1       8       1       1       8       1       1
       8       1       1       8       1       1       8       1       1       8
       1       1       8       1       1       8       1       1       8       1
       1       8       1       1       8       1       1       8       1       1
       8       1       1       8       1       1       8       1       1       8
       1       1       8       1       1       8       1       1       8       1
       1       8       1       1       8       1       1       8       1       1
       8       1       1       8       1       1       8       1       1       8
       1       1       8       1       1       8       1       1       8       1
       1       8       1       1       8       1       1       8       1       1
       8       1       1       8       1       1       8       1       1       8
       1       1       8       1       1       8       1       1       8       1
       1       8       1       1       8       1       1       8       1       1
       8       1       1       8       1       1       8       1       1       8
       1       1       8       1       1       8       1       1       8       1
       1       8       1       1       8       1       1       8       1       1
       8       1       1       8       1       1       8       1       1       8
       1       1       8       1       1       8       1       1       8       1
       1       8       1       1       8       1       1       8       1       1
       8       1       1       8       1       1       8       1       1       8
       1       1       8       1       1       8       1       1       8       1
       1       8       1       1       8       1       1       8       1       1
       8       1       1       8       1       1       8       1       1       8
       1       1       8       1       1       8       1       1       8       1
       1       8       1       1       8       1       1       8       1       1
       8       1       1       8       1       1       8       1       1       8
       1       1       8       1       1       8       1       1       8       1
       1       8       1       1       8       1       1       8       1       1
       8       1       1       8       1       1       8       1       1       8
       1       1       8       1       1       8       1       1       8       1
       1       8       1       1       8       1       1       8       1       1
       8       1       1       8       1       1       8       1       1       8
       1       1       8       1       1       8       1       1       8       1
       1       8       1       1       8       1       1       8       1       1
       8       1       1       8       1       1       8       1       1       8
       1       1       8       1       1       8       1       1       8       1
       1       8       1       1       8       1       1       8       1       1
       8       1       1       8       1       1       8       1       1       8
       1       1       8       1       1       8       1       1       8       1
       1       8       1       1       8       1       1       8       1       1
       8       1       1       8       1       1       8       1       1       8
       1       1       8       1       1       8       1       1       8       1
       1       8       1       1       8       1       1       8       1       1
       8       1       1       8       1       1       8       1       1       8
       1       1       8       1       1       8       1       1       8       1
       1       8       1       1       8       1       1       8       1       1
       8       1       1       8       1       1       8       1       1       8
       1       1       8       1       1       8       1       1       8       1
       1       8       1       1       8       1       1       8       1       1
       8       1       1       8       1       1       8       1       1       8
       1       1       8       1       1       8       1       1       8       1
       1       8       1       1       8       1       1       8       1       1
       8       1       1       8       1       1       8       1       1       8
       1       1       8       1       1       8       1       1       8       1
       1       8       1       1       8       1       1       8       1       1
       8       1       1       8       1       1       8       1       1       8
       1       1       8       1       1       8       1       1       8       1
       1       8       1       1       8       1       1       8       1       1
       8       1       1       8       1       1       8       1       1       8
       1       1       8       1       1       8       1       1       8       1
       1       8       1       1       8       1       1       8       1       1
       8       1       1       8       1       1       8       1       1       8
       1       1       8       1       1       8       1       1       8       1
       1       8       1       1       8       1       1       8       1       1
       8       1       1       8       1       1       8       1       1       8
       1       1       8       1       1       8       1       1       8       1
       1       8       1       1       8       1       1       8       1       1
       8       1       1       8       1       1       8       1       1       8
       1       1       8       1       1       8       1       1       8       1
       1       8       1       1       8       1       1       8       1       1
       8       1       1       8       1       1       8       1       1       8
       1       1       8       1       1       8       1       1       8       1
       1       8       1       1       8       1       1       8       1       1
       8       1       1       8       1       1       8       1       1       8
       1       1       8       1       1       8       1       1       8       1
       1       8       1       1       8       1       1       8       1       1
       8       1       1       8       1       1       8       1       1       8
       1       1       8       1       1       8       1       1       8       1
       1       8       1       1       8       1       1       8       1       1
       8       1       1       8       1       1       8       1       1       8
       1       1       8       1       1       8       1       1       8       1
       1       8       1       1       8       1       1       8       1       1
       8       1       1       8       1       1       8       1       1       8
       1       1       8       1       1       8       1       1       8       1
       1       8       1       1       8       1       1       8       1       1
       8       1       1       8       1       1       8       1       1       8
       1       1       8       1       1       8       1       1       8       1
       1       8       1       1       8       1       1       8       1       1
       8       1       1       8       1       1       8       1       1       8
       1       1       8       1       1       8       1       1       8       1
       1       8       1       1       8       1       1       8       1       1
       8       1       1       8       1       1       8       1       1       8
       1       1       8       1       1       8       1       1       8       1
       1       8       1       1       8       1       1       8       1       1
       8       1       1       8       1       1       8       1       1       8
       1       1       8       1       1       8       1       1       8       1
       1       8       1       1       8       1       1       8       1       1
       8       1       1       8       1       1       8       1       1       8
       1       1       8       1       1       8       1       1       8       1
       1       8       1       1       8       1       1       8       1       1
       8       1       1       8       1       1       8       1       1       8
       1       1       8       1       1       8       1       1       8       1
       1       8       1       1       8       1       1       8       1       1
       8       1       1       8       1       1       8       1       1       8
       1       1       8       1       1       8       1       1       8       1
       1       8       1       1       8       1       1       8       1       1
       8       1       1       8       1       1       8       1       1       8
       1       1       8       1       1       8       1       1       8       1
       1       8       1       1       8       1       1
%FLAG MASS                                                                      
%FORMAT(5E16.8)                                                                 
  1.20100000E+01  1.20100000E+01  1.20100000E+01  1.20100000E+01  1.20100000E+01
  1.20100000E+01  1.20100000E+01  1.20100000E+01  1.20100000E+01  1.20100000E+01
  1.20100000E+01  1.20100000E+01  1.20100000E+01  1.20100000E+01  1.20100000E+01
  1.20100000E+01  1.00800000E+00  1.00800000E+00  1.00800000E+00  1.00800000E+00
  1.00800000E+00  1.00800000E+00  1.00800000E+00  1.00800000E+00  1.00800000E+00
  1.00800000E+00  1.20100000E+01  1.00800000E+00  1.00800000E+00  1.60000000E+01
  1.20100000E+01  1.20100000E+01  1.00800000E+00  1.20100000E+01  1.20100000E+01
  1.20100000E+01  1.20100000E+01  1.20100000E+01  1.20100000E+01  1.00800000E+00
  1.40100000E+01  1.20100000E+01  1.20100000E+01  1.20100000E+01  1.20100000E+01
  1.60000000E+01  1.20100000E+01  1.20100000E+01  1.60000000E+01  1.20100000E+01
  1.20100000E+01  1.60000000E+01  1.60000000E+01  1.20100000E+01  1.60000000E+01
  1.20100000E+01  1.60000000E+01  1.20100000E+01  1.60000000E+01  1.00800000E+00
  1.00800000E+00  1.00800000E+00  1.00800000E+00  1.00800000E+00  1.00800000E+00
  1.00800000E+00  1.00800000E+00  1.00800000E+00  1.00800000E+00  1.00800000E+00
  1.00800000E+00  1.00800000E+00  1.00800000E+00  1.00800000E+00  1.00800000E+00
  1.00800000E+00  1.00800000E+00  1.00800000E+00  1.00800000E+00  1.00800000E+00
  1.00800000E+00  1.00800000E+00  1.00800000E+00  1.00800000E+00  1.60000000E+01
  1.20100000E+01  1.20100000E+01  1.00800000E+00  1.20100000E+01  1.20100000E+01
  1.20100000E+01  1.20100000E+01  1.20100000E+01  1.20100000E+01  1.00800000E+00
  1.40100000E+01  1.20100000E+01  1.20100000E+01  1.20100000E+01  1.20100000E+01
  1.60000000E+01  1.20100000E+01  1.20100000E+01  1.60000000E+01  1.20100000E+01
  1.20100000E+01  1.60000000E+01  1.60000000E+01  1.20100000E+01  1.60000000E+01
  1.20100000E+01  1.60000000E+01  1.20100000E+01  1.60000000E+01  1.00800000E+00
  1.00800000E+00  1.00800000E+00  1.00800000E+00  1.00800000E+00  1.00800000E+00
  1.00800000E+00  1.00800000E+00  1.00800000E+00  1.00800000E+00  1.00800000E+00
  1.00800000E+00  1.00800000E+00  1.00800000E+00  1.00800000E+00  1.00800000E+00
  1.00800000E+00  1.00800000E+00  1.00800000E+00  1.00800000E+00  1.00800000E+00
  1.00800000E+00  1.00800000E+00  1.00800000E+00  1.00800000E+00  1.60000000E+01
  1.20100000E+01  1.20100000E+01  1.00800000E+00  1.20100000E+01  1.20100000E+01
  1.20100000E+01  1.20100000E+01  1.20100000E+01  1.20100000E+01  1.00800000E+00
  1.40100000E+01  1.20100000E+01  1.20100000E+01  1.20100000E+01  1.20100000E+01
  1.60000000E+01  1.20100000E+01  1.20100000E+01  1.60000000E+01  1.20100000E+01
  1.20100000E+01  1.60000000E+01  1.60000000E+01  1.20100000E+01  1.60000000E+01
  1.20100000E+01  1.60000000E+01  1.20100000E+01  1.60000000E+01  1.00800000E+00
  1.00800000E+00  1.00800000E+00  1.00800000E+00  1.00800000E+00  1.00800000E+00
  1.00800000E+00  1.00800000E+00  1.00800000E+00  1.00800000E+00  1.00800000E+00
  1.00800000E+00  1.00800000E+00  1.00800000E+00  1.00800000E+00  1.00800000E+00
  1.00800000E+00  1.00800000E+00  1.00800000E+00  1.00800000E+00  1.00800000E+00
  1.00800000E+00  1.00800000E+00  1.00800000E+00  1.00800000E+00  1.60000000E+01
  1.20100000E+01  1.20100000E+01  1.00800000E+00  1.20100000E+01  1.20100000E+01
  1.20100000E+01  1.20100000E+01  1.20100000E+01  1.20100000E+01  1.00800000E+00
  1.40100000E+01  1.20100000E+01  1.20100000E+01  1.20100000E+01  1.20100000E+01
  1.60000000E+01  1.20100000E+01  1.20100000E+01  1.60000000E+01  1.20100000E+01
  1.20100000E+01  1.60000000E+01  1.60000000E+01  1.20100000E+01  1.60000000E+01
  1.20100000E+01  1.60000000E+01  1.20100000E+01  1.60000000E+01  1.00800000E+00
  1.00800000E+00  1.00800000E+00  1.00800000E+00  1.00800000E+00  1.00800000E+00
  1.00800000E+00  1.00800000E+00  1.00800000E+00  1.00800000E+00  1.00800000E+00
  1.00800000E+00  1.00800000E+00  1.00800000E+00  1.00800000E+00  1.00800000E+00
  1.00800000E+00  1.00800000E+00  1.00800000E+00  1.00800000E+00  1.00800000E+00
  1.00800000E+00  1.00800000E+00  1.00800000E+00  1.00800000E+00  1.60000000E+01
  1.20100000E+01  1.20100000E+01  1.00800000E+00  1.20100000E+01  1.20100000E+01
  1.20100000E+01  1.20100000E+01  1.20100000E+01  1.20100000E+01  1.00800000E+00
  1.40100000E+01  1.20100000E+01  1.20100000E+01  1.20100000E+01  1.20100000E+01
  1.60000000E+01  1.20100000E+01  1.20100000E+01  1.60000000E+01  1.20100000E+01
  1.20100000E+01  1.60000000E+01  1.60000000E+01  1.20100000E+01  1.60000000E+01
  1.20100000E+01  1.60000000E+01  1.20100000E+01  1.60000000E+01  1.00800000E+00
  1.00800000E+00  1.00800000E+00  1.00800000E+00  1.00800000E+00  1.00800000E+00
  1.00800000E+00  1.00800000E+00  1.00800000E+00  1.00800000E+00  1.00800000E+00
  1.00800000E+00  1.00800000E+00  1.00800000E+00  1.00800000E+00  1.00800000E+00
  1.00800000E+00  1.00800000E+00  1.00800000E+00  1.00800000E+00  1.00800000E+00
  1.00800000E+00  1.00800000E+00  1.00800000E+00  1.00800000E+00  1.60000000E+01
  1.20100000E+01  1.20100000E+01  1.00800000E+00  1.20100000E+01  1.20100000E+01
  1.20100000E+01  1.20100000E+01  1.20100000E+01  1.20100000E+01  1.00800000E+00
  1.40100000E+01  1.20100000E+01  1.20100000E+01  1.20100000E+01  1.20100000E+01
  1.60000000E+01  1.20100000E+01  1.20100000E+01  1.60000000E+01  1.20100000E+01
  1.20100000E+01  1.60000000E+01  1.60000000E+01  1.20100000E+01  1.60000000E+01
  1.20100000E+01  1.60000000E+01  1.20100000E+01  1.60000000E+01  1.00800000E+00
  1.00800000E+00  1.00800000E+00  1.00800000E+00  1.00800000E+00  1.00800000E+00
  1.00800000E+00  1.00800000E+00  1.00800000E+00  1.00800000E+00  1.00800000E+00
  1.00800000E+00  1.00800000E+00  1.00800000E+00  1.00800000E+00  1.00800000E+00
  1.00800000E+00  1.00800000E+00  1.00800000E+00  1.00800000E+00  1.00800000E+00
  1.00800000E+00  1.00800000E+00  1.00800000E+00  1.00800000E+00  1.60000000E+01
  1.20100000E+01  1.20100000E+01  1.00800000E+00  1.20100000E+01  1.20100000E+01
  1.20100000E+01  1.20100000E+01  1.20100000E+01  1.20100000E+01  1.00800000E+00
  1.40100000E+01  1.20100000E+01  1.20100000E+01  1.20100000E+01  1.20100000E+01
  1.60000000E+01  1.20100000E+01  1.20100000E+01  1.60000000E+01  1.20100000E+01
  1.20100000E+01  1.60000000E+01  1.60000000E+01  1.20100000E+01  1.60000000E+01
  1.20100000E+01  1.60000000E+01  1.20100000E+01  1.60000000E+01  1.00800000E+00
  1.00800000E+00  1.00800000E+00  1.00800000E+00  1.00800000E+00  1.00800000E+00
  1.00800000E+00  1.00800000E+00  1.00800000E+00  1.00800000E+00  1.00800000E+00
  1.00800000E+00  1.00800000E+00  1.00800000E+00  1.00800000E+00  1.00800000E+00
  1.00800000E+00  1.00800000E+00  1.00800000E+00  1.00800000E+00  1.00800000E+00
  1.00800000E+00  1.00800000E+00  1.00800000E+00  1.00800000E+00  1.60000000E+01
  1.20100000E+01  1.20100000E+01  1.00800000E+00  1.20100000E+01  1.20100000E+01
  1.20100000E+01  1.20100000E+01  1.20100000E+01  1.20100000E+01  1.00800000E+00
  1.40100000E+01  1.20100000E+01  1.20100000E+01  1.20100000E+01  1.20100000E+01
  1.60000000E+01  1.20100000E+01  1.20100000E+01  1.60000000E+01  1.20100000E+01
  1.20100000E+01  1.60000000E+01  1.60000000E+01  1.20100000E+01  1.60000000E+01
  1.20100000E+01  1.60000000E+01  1.20100000E+01  1.60000000E+01  1.00800000E+00
  1.00800000E+00  1.00800000E+00  1.00800000E+00  1.00800000E+00  1.00800000E+00
  1.00800000E+00  1.00800000E+00  1.00800000E+00  1.00800000E+00  1.00800000E+00
  1.00800000E+00  1.00800000E+00  1.00800000E+00  1.00800000E+00  1.00800000E+00
  1.00800000E+00  1.00800000E+00  1.00800000E+00  1.00800000E+00  1.00800000E+00
  1.00800000E+00  1.00800000E+00  1.00800000E+00  1.00800000E+00  1.60000000E+01
  1.20100000E+01  1.20100000E+01  1.00800000E+00  1.20100000E+01  1.20100000E+01
  1.20100000E+01  1.20100000E+01  1.20100000E+01  1.20100000E+01  1.00800000E+00
  1.40100000E+01  1.20100000E+01  1.20100000E+01  1.20100000E+01  1.20100000E+01
  1.60000000E+01  1.20100000E+01  1.20100000E+01  1.60000000E+01  1.20100000E+01
  1.20100000E+01  1.60000000E+01  1.60000000E+01  1.20100000E+01  1.60000000E+01
  1.20100000E+01  1.60000000E+01  1.20100000E+01  1.60000000E+01  1.00800000E+00
  1.00800000E+00  1.00800000E+00  1.00800000E+00  1.00800000E+00  1.00800000E+00
  1.00800000E+00  1.00800000E+00  1.00800000E+00  1.00800000E+00  1.00800000E+00
  1.00800000E+00  1.00800000E+00  1.00800000E+00  1.00800000E+00  1.00800000E+00
  1.00800000E+00  1.00800000E+00  1.00800000E+00  1.00800000E+00  1.00800000E+00
  1.00800000E+00  1.00800000E+00  1.00800000E+00  1.00800000E+00  1.60000000E+01
  1.20100000E+01  1.20100000E+01  1.00800000E+00  1.20100000E+01  1.20100000E+01
  1.20100000E+01  1.20100000E+01  1.20100000E+01  1.20100000E+01  1.00800000E+00
  1.40100000E+01  1.20100000E+01  1.20100000E+01  1.20100000E+01  1.20100000E+01
  1.60000000E+01  1.20100000E+01  1.20100000E+01  1.60000000E+01  1.20100000E+01
  1.20100000E+01  1.60000000E+01  1.60000000E+01  1.20100000E+01  1.60000000E+01
  1.20100000E+01  1.60000000E+01  1.20100000E+01  1.60000000E+01  1.00800000E+00
  1.00800000E+00  1.00800000E+00  1.00800000E+00  1.00800000E+00  1.00800000E+00
  1.00800000E+00  1.00800000E+00  1.00800000E+00  1.00800000E+00  1.00800000E+00
  1.00800000E+00  1.00800000E+00  1.00800000E+00  1.00800000E+00  1.00800000E+00
  1.00800000E+00  1.00800000E+00  1.00800000E+00  1.00800000E+00  1.00800000E+00
  1.00800000E+00  1.00800000E+00  1.00800000E+00  1.00800000E+00  1.20100000E+01
  1.00800000E+00  1.00800000E+00  1.20100000E+01  1.00800000E+00  1.00800000E+00
  1.60000000E+01  1.20100000E+01  1.20100000E+01  1.00800000E+00  1.20100000E+01
  1.20100000E+01  1.20100000E+01  1.20100000E+01  1.20100000E+01  1.20100000E+01
  1.00800000E+00  1.40100000E+01  1.20100000E+01  1.20100000E+01  1.20100000E+01
  1.20100000E+01  1.60000000E+01  1.20100000E+01  1.20100000E+01  1.60000000E+01
  1.20100000E+01  1.20100000E+01  1.60000000E+01  1.60000000E+01  1.20100000E+01
  1.60000000E+01  1.20100000E+01  1.60000000E+01  1.20100000E+01  1.60000000E+01
  1.00800000E+00  1.00800000E+00  1.00800000E+00  1.00800000E+00  1.00800000E+00
  1.00800000E+00  1.00800000E+00  1.00800000E+00  1.00800000E+00  1.00800000E+00
  1.00800000E+00  1.00800000E+00  1.00800000E+00  1.00800000E+00  1.00800000E+00
  1.00800000E+00  1.00800000E+00  1.00800000E+00  1.00800000E+00  1.00800000E+00
  1.00800000E+00  1.00800000E+00  1.00800000E+00  1.00800000E+00  1.00800000E+00
  1.60000000E+01  1.20100000E+01  1.20100000E+01  1.00800000E+00  1.20100000E+01
  1.20100000E+01  1.20100000E+01  1.20100000E+01  1.20100000E+01  1.20100000E+01
  1.00800000E+00  1.40100000E+01  1.20100000E+01  1.20100000E+01  1.20100000E+01
  1.20100000E+01  1.60000000E+01  1.20100000E+01  1.20100000E+01  1.60000000E+01
  1.20100000E+01  1.20100000E+01  1.60000000E+01  1.60000000E+01  1.20100000E+01
  1.60000000E+01  1.20100000E+01  1.60000000E+01  1.20100000E+01  1.60000000E+01
  1.00800000E+00  1.00800000E+00  1.00800000E+00  1.00800000E+00  1.00800000E+00
  1.00800000E+00  1.00800000E+00  1.00800000E+00  1.00800000E+00  1.00800000E+00
  1.00800000E+00  1.00800000E+00  1.00800000E+00  1.00800000E+00  1.00800000E+00
  1.00800000E+00  1.00800000E+00  1.00800000E+00  1.00800000E+00  1.00800000E+00
  1.00800000E+00  1.00800000E+00  1.00800000E+00  1.00800000E+00  1.00800000E+00
  1.60000000E+01  1.20100000E+01  1.20100000E+01  1.00800000E+00  1.20100000E+01
  1.20100000E+01  1.20100000E+01  1.20100000E+01  1.20100000E+01  1.20100000E+01
  1.00800000E+00  1.40100000E+01  1.20100000E+01  1.20100000E+01  1.20100000E+01
  1.20100000E+01  1.60000000E+01  1.20100000E+01  1.20100000E+01  1.60000000E+01
  1.20100000E+01  1.20100000E+01  1.60000000E+01  1.60000000E+01  1.20100000E+01
  1.60000000E+01  1.20100000E+01  1.60000000E+01  1.20100000E+01  1.60000000E+01
  1.00800000E+00  1.00800000E+00  1.00800000E+00  1.00800000E+00  1.00800000E+00
  1.00800000E+00  1.00800000E+00  1.00800000E+00  1.00800000E+00  1.00800000E+00
  1.00800000E+00  1.00800000E+00  1.00800000E+00  1.00800000E+00  1.00800000E+00
  1.00800000E+00  1.00800000E+00  1.00800000E+00  1.00800000E+00  1.00800000E+00
  1.00800000E+00  1.00800000E+00  1.00800000E+00  1.00800000E+00  1.00800000E+00
  1.60000000E+01  1.20100000E+01  1.20100000E+01  1.00800000E+00  1.20100000E+01
  1.20100000E+01  1.20100000E+01  1.20100000E+01  1.20100000E+01  1.20100000E+01
  1.00800000E+00  1.40100000E+01  1.20100000E+01  1.20100000E+01  1.20100000E+01
  1.20100000E+01  1.60000000E+01  1.20100000E+01  1.20100000E+01  1.60000000E+01
  1.20100000E+01  1.20100000E+01  1.60000000E+01  1.60000000E+01  1.20100000E+01
  1.60000000E+01  1.20100000E+01  1.60000000E+01  1.20100000E+01  1.60000000E+01
  1.00800000E+00  1.00800000E+00  1.00800000E+00  1.00800000E+00  1.00800000E+00
  1.00800000E+00  1.00800000E+00  1.00800000E+00  1.00800000E+00  1.00800000E+00
  1.00800000E+00  1.00800000E+00  1.00800000E+00  1.00800000E+00  1.00800000E+00
  1.00800000E+00  1.00800000E+00  1.00800000E+00  1.00800000E+00  1.00800000E+00
  1.00800000E+00  1.00800000E+00  1.00800000E+00  1.00800000E+00  1.00800000E+00
  1.60000000E+01  1.20100000E+01  1.20100000E+01  1.00800000E+00  1.20100000E+01
  1.20100000E+01  1.20100000E+01  1.20100000E+01  1.20100000E+01  1.20100000E+01
  1.00800000E+00  1.40100000E+01  1.20100000E+01  1.20100000E+01  1.20100000E+01
  1.20100000E+01  1.60000000E+01  1.20100000E+01  1.20100000E+01  1.60000000E+01
  1.20100000E+01  1.20100000E+01  1.60000000E+01  1.60000000E+01  1.20100000E+01
  1.60000000E+01  1.20100000E+01  1.60000000E+01  1.20100000E+01  1.60000000E+01
  1.00800000E+00  1.00800000E+00  1.00800000E+00  1.00800000E+00  1.00800000E+00
  1.00800000E+00  1.00800000E+00  1.00800000E+00  1.00800000E+00  1.00800000E+00
  1.00800000E+00  1.00800000E+00  1.00800000E+00  1.00800000E+00  1.00800000E+00
  1.00800000E+00  1.00800000E+00  1.00800000E+00  1.00800000E+00  1.00800000E+00
  1.00800000E+00  1.00800000E+00  1.00800000E+00  1.00800000E+00  1.00800000E+00
  1.60000000E+01  1.20100000E+01  1.20100000E+01  1.00800000E+00  1.20100000E+01
  1.20100000E+01  1.20100000E+01  1.20100000E+01  1.20100000E+01  1.20100000E+01
  1.00800000E+00  1.40100000E+01  1.20100000E+01  1.20100000E+01  1.20100000E+01
  1.20100000E+01  1.60000000E+01  1.20100000E+01  1.20100000E+01  1.60000000E+01
  1.20100000E+01  1.20100000E+01  1.60000000E+01  1.60000000E+01  1.20100000E+01
  1.60000000E+01  1.20100000E+01  1.60000000E+01  1.20100000E+01  1.60000000E+01
  1.00800000E+00  1.00800000E+00  1.00800000E+00  1.00800000E+00  1.00800000E+00
  1.00800000E+00  1.00800000E+00  1.00800000E+00  1.00800000E+00  1.00800000E+00
  1.00800000E+00  1.00800000E+00  1.00800000E+00  1.00800000E+00  1.00800000E+00
  1.00800000E+00  1.00800000E+00  1.00800000E+00  1.00800000E+00  1.00800000E+00
  1.00800000E+00  1.00800000E+00  1.00800000E+00  1.00800000E+00  1.00800000E+00
  1.60000000E+01  1.20100000E+01  1.20100000E+01  1.00800000E+00  1.20100000E+01
  1.20100000E+01  1.20100000E+01  1.20100000E+01  1.20100000E+01  1.20100000E+01
  1.00800000E+00  1.40100000E+01  1.20100000E+01  1.20100000E+01  1.20100000E+01
  1.20100000E+01  1.60000000E+01  1.20100000E+01  1.20100000E+01  1.60000000E+01
  1.20100000E+01  1.20100000E+01  1.60000000E+01  1.60000000E+01  1.20100000E+01
  1.60000000E+01  1.20100000E+01  1.60000000E+01  1.20100000E+01  1.60000000E+01
  1.00800000E+00  1.00800000E+00  1.00800000E+00  1.00800000E+00  1.00800000E+00
  1.00800000E+00  1.00800000E+00  1.00800000E+00  1.00800000E+00  1.00800000E+00
  1.00800000E+00  1.00800000E+00  1.00800000E+00  1.00800000E+00  1.00800000E+00
  1.00800000E+00  1.00800000E+00  1.00800000E+00  1.00800000E+00  1.00800000E+00
  1.00800000E+00  1.00800000E+00  1.00800000E+00  1.00800000E+00  1.00800000E+00
  1.60000000E+01  1.20100000E+01  1.20100000E+01  1.00800000E+00  1.20100000E+01
  1.20100000E+01  1.20100000E+01  1.20100000E+01  1.20100000E+01  1.20100000E+01
  1.00800000E+00  1.40100000E+01  1.20100000E+01  1.20100000E+01  1.20100000E+01
  1.20100000E+01  1.60000000E+01  1.20100000E+01  1.20100000E+01  1.60000000E+01
  1.20100000E+01  1.20100000E+01  1.60000000E+01  1.60000000E+01  1.20100000E+01
  1.60000000E+01  1.20100000E+01  1.60000000E+01  1.20100000E+01  1.60000000E+01
  1.00800000E+00  1.00800000E+00  1.00800000E+00  1.00800000E+00  1.00800000E+00
  1.00800000E+00  1.00800000E+00  1.00800000E+00  1.00800000E+00  1.00800000E+00
  1.00800000E+00  1.00800000E+00  1.00800000E+00  1.00800000E+00  1.00800000E+00
  1.00800000E+00  1.00800000E+00  1.00800000E+00  1.00800000E+00  1.00800000E+00
  1.00800000E+00  1.00800000E+00  1.00800000E+00  1.00800000E+00  1.00800000E+00
  1.60000000E+01  1.20100000E+01  1.20100000E+01  1.00800000E+00  1.20100000E+01
  1.20100000E+01  1.20100000E+01  1.20100000E+01  1.20100000E+01  1.20100000E+01
  1.00800000E+00  1.40100000E+01  1.20100000E+01  1.20100000E+01  1.20100000E+01
  1.20100000E+01  1.60000000E+01  1.20100000E+01  1.20100000E+01  1.60000000E+01
  1.20100000E+01  1.20100000E+01  1.60000000E+01  1.60000000E+01  1.20100000E+01
  1.60000000E+01  1.20100000E+01  1.60000000E+01  1.20100000E+01  1.60000000E+01
  1.00800000E+00  1.00800000E+00  1.00800000E+00  1.00800000E+00  1.00800000E+00
  1.00800000E+00  1.00800000E+00  1.00800000E+00  1.00800000E+00  1.00800000E+00
  1.00800000E+00  1.00800000E+00  1.00800000E+00  1.00800000E+00  1.00800000E+00
  1.00800000E+00  1.00800000E+00  1.00800000E+00  1.00800000E+00  1.00800000E+00
  1.00800000E+00  1.00800000E+00  1.00800000E+00  1.00800000E+00  1.00800000E+00
  1.60000000E+01  1.20100000E+01  1.20100000E+01  1.00800000E+00  1.20100000E+01
  1.20100000E+01  1.20100000E+01  1.20100000E+01  1.20100000E+01  1.20100000E+01
  1.00800000E+00  1.40100000E+01  1.20100000E+01  1.20100000E+01  1.20100000E+01
  1.20100000E+01  1.60000000E+01  1.20100000E+01  1.20100000E+01  1.60000000E+01
  1.20100000E+01  1.20100000E+01  1.60000000E+01  1.60000000E+01  1.20100000E+01
  1.60000000E+01  1.20100000E+01  1.60000000E+01  1.20100000E+01  1.60000000E+01
  1.00800000E+00  1.00800000E+00  1.00800000E+00  1.00800000E+00  1.00800000E+00
  1.00800000E+00  1.00800000E+00  1.00800000E+00  1.00800000E+00  1.00800000E+00
  1.00800000E+00  1.00800000E+00  1.00800000E+00  1.00800000E+00  1.00800000E+00
  1.00800000E+00  1.00800000E+00  1.00800000E+00  1.00800000E+00  1.00800000E+00
  1.00800000E+00  1.00800000E+00  1.00800000E+00  1.00800000E+00  1.00800000E+00
  1.20100000E+01  1.00800000E+00  1.00800000E+00  1.20100000E+01  1.00800000E+00
  1.00800000E+00  1.60000000E+01  1.20100000E+01  1.20100000E+01  1.00800000E+00
  1.20100000E+01  1.20100000E+01  1.20100000E+01  1.20100000E+01  1.20100000E+01
  1.20100000E+01  1.00800000E+00  1.40100000E+01  1.20100000E+01  1.20100000E+01
  1.20100000E+01  1.20100000E+01  1.60000000E+01  1.20100000E+01  1.20100000E+01
  1.60000000E+01  1.20100000E+01  1.20100000E+01  1.60000000E+01  1.60000000E+01
  1.20100000E+01  1.60000000E+01  1.20100000E+01  1.60000000E+01  1.20100000E+01
  1.60000000E+01  1.00800000E+00  1.00800000E+00  1.00800000E+00  1.00800000E+00
  1.00800000E+00  1.00800000E+00  1.00800000E+00  1.00800000E+00  1.00800000E+00
  1.00800000E+00  1.00800000E+00  1.00800000E+00  1.00800000E+00  1.00800000E+00
  1.00800000E+00  1.00800000E+00  1.00800000E+00  1.00800000E+00  1.00800000E+00
  1.00800000E+00  1.00800000E+00  1.00800000E+00  1.00800000E+00  1.00800000E+00
  1.00800000E+00  1.60000000E+01  1.20100000E+01  1.20100000E+01  1.00800000E+00
  1.20100000E+01  1.20100000E+01  1.20100000E+01  1.20100000E+01  1.20100000E+01
  1.20100000E+01  1.00800000E+00  1.40100000E+01  1.20100000E+01  1.20100000E+01
  1.20100000E+01  1.20100000E+01  1.60000000E+01  1.20100000E+01  1.20100000E+01
  1.60000000E+01  1.20100000E+01  1.20100000E+01  1.60000000E+01  1.60000000E+01
  1.20100000E+01  1.60000000E+01  1.20100000E+01  1.60000000E+01  1.20100000E+01
  1.60000000E+01  1.00800000E+00  1.00800000E+00  1.00800000E+00  1.00800000E+00
  1.00800000E+00  1.00800000E+00  1.00800000E+00  1.00800000E+00  1.00800000E+00
  1.00800000E+00  1.00800000E+00  1.00800000E+00  1.00800000E+00  1.00800000E+00
  1.00800000E+00  1.00800000E+00  1.00800000E+00  1.00800000E+00  1.00800000E+00
  1.00800000E+00  1.00800000E+00  1.00800000E+00  1.00800000E+00  1.00800000E+00
  1.00800000E+00  1.60000000E+01  1.20100000E+01  1.20100000E+01  1.00800000E+00
  1.20100000E+01  1.20100000E+01  1.20100000E+01  1.20100000E+01  1.20100000E+01
  1.20100000E+01  1.00800000E+00  1.40100000E+01  1.20100000E+01  1.20100000E+01
  1.20100000E+01  1.20100000E+01  1.60000000E+01  1.20100000E+01  1.20100000E+01
  1.60000000E+01  1.20100000E+01  1.20100000E+01  1.60000000E+01  1.60000000E+01
  1.20100000E+01  1.60000000E+01  1.20100000E+01  1.60000000E+01  1.20100000E+01
  1.60000000E+01  1.00800000E+00  1.00800000E+00  1.00800000E+00  1.00800000E+00
  1.00800000E+00  1.00800000E+00  1.00800000E+00  1.00800000E+00  1.00800000E+00
  1.00800000E+00  1.00800000E+00  1.00800000E+00  1.00800000E+00  1.00800000E+00
  1.00800000E+00  1.00800000E+00  1.00800000E+00  1.00800000E+00  1.00800000E+00
  1.00800000E+00  1.00800000E+00  1.00800000E+00  1.00800000E+00  1.00800000E+00
  1.00800000E+00  1.60000000E+01  1.20100000E+01  1.20100000E+01  1.00800000E+00
  1.20100000E+01  1.20100000E+01  1.20100000E+01  1.20100000E+01  1.20100000E+01
  1.20100000E+01  1.00800000E+00  1.40100000E+01  1.20100000E+01  1.20100000E+01
  1.20100000E+01  1.20100000E+01  1.60000000E+01  1.20100000E+01  1.20100000E+01
  1.60000000E+01  1.20100000E+01  1.20100000E+01  1.60000000E+01  1.60000000E+01
  1.20100000E+01  1.60000000E+01  1.20100000E+01  1.60000000E+01  1.20100000E+01
  1.60000000E+01  1.00800000E+00  1.00800000E+00  1.00800000E+00  1.00800000E+00
  1.00800000E+00  1.00800000E+00  1.00800000E+00  1.00800000E+00  1.00800000E+00
  1.00800000E+00  1.00800000E+00  1.00800000E+00  1.00800000E+00  1.00800000E+00
  1.00800000E+00  1.00800000E+00  1.00800000E+00  1.00800000E+00  1.00800000E+00
  1.00800000E+00  1.00800000E+00  1.00800000E+00  1.00800000E+00  1.00800000E+00
  1.00800000E+00  1.60000000E+01  1.20100000E+01  1.20100000E+01  1.00800000E+00
  1.20100000E+01  1.20100000E+01  1.20100000E+01  1.20100000E+01  1.20100000E+01
  1.20100000E+01  1.00800000E+00  1.40100000E+01  1.20100000E+01  1.20100000E+01
  1.20100000E+01  1.20100000E+01  1.60000000E+01  1.20100000E+01  1.20100000E+01
  1.60000000E+01  1.20100000E+01  1.20100000E+01  1.60000000E+01  1.60000000E+01
  1.20100000E+01  1.60000000E+01  1.20100000E+01  1.60000000E+01  1.20100000E+01
  1.60000000E+01  1.00800000E+00  1.00800000E+00  1.00800000E+00  1.00800000E+00
  1.00800000E+00  1.00800000E+00  1.00800000E+00  1.00800000E+00  1.00800000E+00
  1.00800000E+00  1.00800000E+00  1.00800000E+00  1.00800000E+00  1.00800000E+00
  1.00800000E+00  1.00800000E+00  1.00800000E+00  1.00800000E+00  1.00800000E+00
  1.00800000E+00  1.00800000E+00  1.00800000E+00  1.00800000E+00  1.00800000E+00
  1.00800000E+00  1.60000000E+01  1.20100000E+01  1.20100000E+01  1.00800000E+00
  1.20100000E+01  1.20100000E+01  1.20100000E+01  1.20100000E+01  1.20100000E+01
  1.20100000E+01  1.00800000E+00  1.40100000E+01  1.20100000E+01  1.20100000E+01
  1.20100000E+01  1.20100000E+01  1.60000000E+01  1.20100000E+01  1.20100000E+01
  1.60000000E+01  1.20100000E+01  1.20100000E+01  1.60000000E+01  1.60000000E+01
  1.20100000E+01  1.60000000E+01  1.20100000E+01  1.60000000E+01  1.20100000E+01
  1.60000000E+01  1.00800000E+00  1.00800000E+00  1.00800000E+00  1.00800000E+00
  1.00800000E+00  1.00800000E+00  1.00800000E+00  1.00800000E+00  1.00800000E+00
  1.00800000E+00  1.00800000E+00  1.00800000E+00  1.00800000E+00  1.00800000E+00
  1.00800000E+00  1.00800000E+00  1.00800000E+00  1.00800000E+00  1.00800000E+00
  1.00800000E+00  1.00800000E+00  1.00800000E+00  1.00800000E+00  1.00800000E+00
  1.00800000E+00  1.60000000E+01  1.20100000E+01  1.20100000E+01  1.00800000E+00
  1.20100000E+01  1.20100000E+01  1.20100000E+01  1.20100000E+01  1.20100000E+01
  1.20100000E+01  1.00800000E+00  1.40100000E+01  1.20100000E+01  1.20100000E+01
  1.20100000E+01  1.20100000E+01  1.60000000E+01  1.20100000E+01  1.20100000E+01
  1.60000000E+01  1.20100000E+01  1.20100000E+01  1.60000000E+01  1.60000000E+01
  1.20100000E+01  1.60000000E+01  1.20100000E+01  1.60000000E+01  1.20100000E+01
  1.60000000E+01  1.00800000E+00  1.00800000E+00  1.00800000E+00  1.00800000E+00
  1.00800000E+00  1.00800000E+00  1.00800000E+00  1.00800000E+00  1.00800000E+00
  1.00800000E+00  1.00800000E+00  1.00800000E+00  1.00800000E+00  1.00800000E+00
  1.00800000E+00  1.00800000E+00  1.00800000E+00  1.00800000E+00  1.00800000E+00
  1.00800000E+00  1.00800000E+00  1.00800000E+00  1.00800000E+00  1.00800000E+00
  1.00800000E+00  1.60000000E+01  1.20100000E+01  1.20100000E+01  1.00800000E+00
  1.20100000E+01  1.20100000E+01  1.20100000E+01  1.20100000E+01  1.20100000E+01
  1.20100000E+01  1.00800000E+00  1.40100000E+01  1.20100000E+01  1.20100000E+01
  1.20100000E+01  1.20100000E+01  1.60000000E+01  1.20100000E+01  1.20100000E+01
  1.60000000E+01  1.20100000E+01  1.20100000E+01  1.60000000E+01  1.60000000E+01
  1.20100000E+01  1.60000000E+01  1.20100000E+01  1.60000000E+01  1.20100000E+01
  1.60000000E+01  1.00800000E+00  1.00800000E+00  1.00800000E+00  1.00800000E+00
  1.00800000E+00  1.00800000E+00  1.00800000E+00  1.00800000E+00  1.00800000E+00
  1.00800000E+00  1.00800000E+00  1.00800000E+00  1.00800000E+00  1.00800000E+00
  1.00800000E+00  1.00800000E+00  1.00800000E+00  1.00800000E+00  1.00800000E+00
  1.00800000E+00  1.00800000E+00  1.00800000E+00  1.00800000E+00  1.00800000E+00
  1.00800000E+00  1.60000000E+01  1.20100000E+01  1.20100000E+01  1.00800000E+00
  1.20100000E+01  1.20100000E+01  1.20100000E+01  1.20100000E+01  1.20100000E+01
  1.20100000E+01  1.00800000E+00  1.40100000E+01  1.20100000E+01  1.20100000E+01
  1.20100000E+01  1.20100000E+01  1.60000000E+01  1.20100000E+01  1.20100000E+01
  1.60000000E+01  1.20100000E+01  1.20100000E+01  1.60000000E+01  1.60000000E+01
  1.20100000E+01  1.60000000E+01  1.20100000E+01  1.60000000E+01  1.20100000E+01
  1.60000000E+01  1.00800000E+00  1.00800000E+00  1.00800000E+00  1.00800000E+00
  1.00800000E+00  1.00800000E+00  1.00800000E+00  1.00800000E+00  1.00800000E+00
  1.00800000E+00  1.00800000E+00  1.00800000E+00  1.00800000E+00  1.00800000E+00
  1.00800000E+00  1.00800000E+00  1.00800000E+00  1.00800000E+00  1.00800000E+00
  1.00800000E+00  1.00800000E+00  1.00800000E+00  1.00800000E+00  1.00800000E+00
  1.00800000E+00  1.60000000E+01  1.20100000E+01  1.20100000E+01  1.00800000E+00
  1.20100000E+01  1.20100000E+01  1.20100000E+01  1.20100000E+01  1.20100000E+01
  1.20100000E+01  1.00800000E+00  1.40100000E+01  1.20100000E+01  1.20100000E+01
  1.20100000E+01  1.20100000E+01  1.60000000E+01  1.20100000E+01  1.20100000E+01
  1.60000000E+01  1.20100000E+01  1.20100000E+01  1.60000000E+01  1.60000000E+01
  1.20100000E+01  1.60000000E+01  1.20100000E+01  1.60000000E+01  1.20100000E+01
  1.60000000E+01  1.00800000E+00  1.00800000E+00  1.00800000E+00  1.00800000E+00
  1.00800000E+00  1.00800000E+00  1.00800000E+00  1.00800000E+00  1.00800000E+00
  1.00800000E+00  1.00800000E+00  1.00800000E+00  1.00800000E+00  1.00800000E+00
  1.00800000E+00  1.00800000E+00  1.00800000E+00  1.00800000E+00  1.00800000E+00
  1.00800000E+00  1.00800000E+00  1.00800000E+00  1.00800000E+00  1.00800000E+00
  1.00800000E+00  1.20100000E+01  1.00800000E+00  1.00800000E+00  1.60000000E+01
  1.00800000E+00  1.00800000E+00  1.60000000E+01  1.00800000E+00  1.00800000E+00
  1.60000000E+01  1.00800000E+00  1.00800000E+00  1.60000000E+01  1.00800000E+00
  1.00800000E+00  1.60000000E+01  1.00800000E+00  1.00800000E+00  1.60000000E+01
  1.00800000E+00  1.00800000E+00  1.60000000E+01  1.00800000E+00  1.00800000E+00
  1.60000000E+01  1.00800000E+00  1.00800000E+00  1.60000000E+01  1.00800000E+00
  1.00800000E+00  1.60000000E+01  1.00800000E+00  1.00800000E+00  1.60000000E+01
  1.00800000E+00  1.00800000E+00  1.60000000E+01  1.00800000E+00  1.00800000E+00
  1.60000000E+01  1.00800000E+00  1.00800000E+00  1.60000000E+01  1.00800000E+00
  1.00800000E+00  1.60000000E+01  1.00800000E+00  1.00800000E+00  1.60000000E+01
  1.00800000E+00  1.00800000E+00  1.60000000E+01  1.00800000E+00  1.00800000E+00
  1.60000000E+01  1.00800000E+00  1.00800000E+00  1.60000000E+01  1.00800000E+00
  1.00800000E+00  1.60000000E+01  1.00800000E+00  1.00800000E+00  1.60000000E+01
  1.00800000E+00  1.00800000E+00  1.60000000E+01  1.00800000E+00  1.00800000E+00
  1.60000000E+01  1.00800000E+00  1.00800000E+00  1.60000000E+01  1.00800000E+00
  1.00800000E+00  1.60000000E+01  1.00800000E+00  1.00800000E+00  1.60000000E+01
  1.00800000E+00  1.00800000E+00  1.60000000E+01  1.00800000E+00  1.00800000E+00
  1.60000000E+01  1.00800000E+00  1.00800000E+00  1.60000000E+01  1.00800000E+00
  1.00800000E+00  1.60000000E+01  1.00800000E+00  1.00800000E+00  1.60000000E+01
  1.00800000E+00  1.00800000E+00  1.60000000E+01  1.00800000E+00  1.00800000E+00
  1.60000000E+01  1.00800000E+00  1.00800000E+00  1.60000000E+01  1.00800000E+00
  1.00800000E+00  1.60000000E+01  1.00800000E+00  1.00800000E+00  1.60000000E+01
  1.00800000E+00  1.00800000E+00  1.60000000E+01  1.00800000E+00  1.00800000E+00
  1.60000000E+01  1.00800000E+00  1.00800000E+00  1.60000000E+01  1.00800000E+00
  1.00800000E+00  1.60000000E+01  1.00800000E+00  1.00800000E+00  1.60000000E+01
  1.00800000E+00  1.00800000E+00  1.60000000E+01  1.00800000E+00  1.00800000E+00
  1.60000000E+01  1.00800000E+00  1.00800000E+00  1.60000000E+01  1.00800000E+00
  1.00800000E+00  1.60000000E+01  1.00800000E+00  1.00800000E+00  1.60000000E+01
  1.00800000E+00  1.00800000E+00  1.60000000E+01  1.00800000E+00  1.00800000E+00
  1.60000000E+01  1.00800000E+00  1.00800000E+00  1.60000000E+01  1.00800000E+00
  1.00800000E+00  1.60000000E+01  1.00800000E+00  1.00800000E+00  1.60000000E+01
  1.00800000E+00  1.00800000E+00  1.60000000E+01  1.00800000E+00  1.00800000E+00
  1.60000000E+01  1.00800000E+00  1.00800000E+00  1.60000000E+01  1.00800000E+00
  1.00800000E+00  1.60000000E+01  1.00800000E+00  1.00800000E+00  1.60000000E+01
  1.00800000E+00  1.00800000E+00  1.60000000E+01  1.00800000E+00  1.00800000E+00
  1.60000000E+01  1.00800000E+00  1.00800000E+00  1.60000000E+01  1.00800000E+00
  1.00800000E+00  1.60000000E+01  1.00800000E+00  1.00800000E+00  1.60000000E+01
  1.00800000E+00  1.00800000E+00  1.60000000E+01  1.00800000E+00  1.00800000E+00
  1.60000000E+01  1.00800000E+00  1.00800000E+00  1.60000000E+01  1.00800000E+00
  1.00800000E+00  1.60000000E+01  1.00800000E+00  1.00800000E+00  1.60000000E+01
  1.00800000E+00  1.00800000E+00  1.60000000E+01  1.00800000E+00  1.00800000E+00
  1.60000000E+01  1.00800000E+00  1.00800000E+00  1.60000000E+01  1.00800000E+00
  1.00800000E+00  1.60000000E+01  1.00800000E+00  1.00800000E+00  1.60000000E+01
  1.00800000E+00  1.00800000E+00  1.60000000E+01  1.00800000E+00  1.00800000E+00
  1.60000000E+01  1.00800000E+00  1.00800000E+00  1.60000000E+01  1.00800000E+00
  1.00800000E+00  1.60000000E+01  1.00800000E+00  1.00800000E+00  1.60000000E+01
  1.00800000E+00  1.00800000E+00  1.60000000E+01  1.00800000E+00  1.00800000E+00
  1.60000000E+01  1.00800000E+00  1.00800000E+00  1.60000000E+01  1.00800000E+00
  1.00800000E+00  1.60000000E+01  1.00800000E+00  1.00800000E+00  1.60000000E+01
  1.00800000E+00  1.00800000E+00  1.60000000E+01  1.00800000E+00  1.00800000E+00
  1.60000000E+01  1.00800000E+00  1.00800000E+00  1.60000000E+01  1.00800000E+00
  1.00800000E+00  1.60000000E+01  1.00800000E+00  1.00800000E+00  1.60000000E+01
  1.00800000E+00  1.00800000E+00  1.60000000E+01  1.00800000E+00  1.00800000E+00
  1.60000000E+01  1.00800000E+00  1.00800000E+00  1.60000000E+01  1.00800000E+00
  1.00800000E+00  1.60000000E+01  1.00800000E+00  1.00800000E+00  1.60000000E+01
  1.00800000E+00  1.00800000E+00  1.60000000E+01  1.00800000E+00  1.00800000E+00
  1.60000000E+01  1.00800000E+00  1.00800000E+00  1.60000000E+01  1.00800000E+00
  1.00800000E+00  1.60000000E+01  1.00800000E+00  1.00800000E+00  1.60000000E+01
  1.00800000E+00  1.00800000E+00  1.60000000E+01  1.00800000E+00  1.00800000E+00
  1.60000000E+01  1.00800000E+00  1.00800000E+00  1.60000000E+01  1.00800000E+00
  1.00800000E+00  1.60000000E+01  1.00800000E+00  1.00800000E+00  1.60000000E+01
  1.00800000E+00  1.00800000E+00  1.60000000E+01  1.00800000E+00  1.00800000E+00
  1.60000000E+01  1.00800000E+00  1.00800000E+00  1.60000000E+01  1.00800000E+00
  1.00800000E+00  1.60000000E+01  1.00800000E+00  1.00800000E+00  1.60000000E+01
  1.00800000E+00  1.00800000E+00  1.60000000E+01  1.00800000E+00  1.00800000E+00
  1.60000000E+01  1.00800000E+00  1.00800000E+00  1.60000000E+01  1.00800000E+00
  1.00800000E+00  1.60000000E+01  1.00800000E+00  1.00800000E+00  1.60000000E+01
  1.00800000E+00  1.00800000E+00  1.60000000E+01  1.00800000E+00  1.00800000E+00
  1.60000000E+01  1.00800000E+00  1.00800000E+00  1.60000000E+01  1.00800000E+00
  1.00800000E+00  1.60000000E+01  1.00800000E+00  1.00800000E+00  1.60000000E+01
  1.00800000E+00  1.00800000E+00  1.60000000E+01  1.00800000E+00  1.00800000E+00
  1.60000000E+01  1.00800000E+00  1.00800000E+00  1.60000000E+01  1.00800000E+00
  1.00800000E+00  1.60000000E+01  1.00800000E+00  1.00800000E+00  1.60000000E+01
  1.00800000E+00  1.00800000E+00  1.60000000E+01  1.00800000E+00  1.00800000E+00
  1.60000000E+01  1.00800000E+00  1.00800000E+00  1.60000000E+01  1.00800000E+00
  1.00800000E+00  1.60000000E+01  1.00800000E+00  1.00800000E+00  1.60000000E+01
  1.00800000E+00  1.00800000E+00  1.60000000E+01  1.00800000E+00  1.00800000E+00
  1.60000000E+01  1.00800000E+00  1.00800000E+00  1.60000000E+01  1.00800000E+00
  1.00800000E+00  1.60000000E+01  1.00800000E+00  1.00800000E+00  1.60000000E+01
  1.00800000E+00  1.00800000E+00  1.60000000E+01  1.00800000E+00  1.00800000E+00
  1.60000000E+01  1.00800000E+00  1.00800000E+00  1.60000000E+01  1.00800000E+00
  1.00800000E+00  1.60000000E+01  1.00800000E+00  1.00800000E+00  1.60000000E+01
  1.00800000E+00  1.00800000E+00  1.60000000E+01  1.00800000E+00  1.00800000E+00
  1.60000000E+01  1.00800000E+00  1.00800000E+00  1.60000000E+01  1.00800000E+00
  1.00800000E+00  1.60000000E+01  1.00800000E+00  1.00800000E+00  1.60000000E+01
  1.00800000E+00  1.00800000E+00  1.60000000E+01  1.00800000E+00  1.00800000E+00
  1.60000000E+01  1.00800000E+00  1.00800000E+00  1.60000000E+01  1.00800000E+00
  1.00800000E+00  1.60000000E+01  1.00800000E+00  1.00800000E+00  1.60000000E+01
  1.00800000E+00  1.00800000E+00  1.60000000E+01  1.00800000E+00  1.00800000E+00
  1.60000000E+01  1.00800000E+00  1.00800000E+00  1.60000000E+01  1.00800000E+00
  1.00800000E+00  1.60000000E+01  1.00800000E+00  1.00800000E+00  1.60000000E+01
  1.00800000E+00  1.00800000E+00  1.60000000E+01  1.00800000E+00  1.00800000E+00
  1.60000000E+01  1.00800000E+00  1.00800000E+00  1.60000000E+01  1.00800000E+00
  1.00800000E+00  1.60000000E+01  1.00800000E+00  1.00800000E+00  1.60000000E+01
  1.00800000E+00  1.00800000E+00  1.60000000E+01  1.00800000E+00  1.00800000E+00
  1.60000000E+01  1.00800000E+00  1.00800000E+00  1.60000000E+01  1.00800000E+00
  1.00800000E+00  1.60000000E+01  1.00800000E+00  1.00800000E+00  1.60000000E+01
  1.00800000E+00  1.00800000E+00  1.60000000E+01  1.00800000E+00  1.00800000E+00
  1.60000000E+01  1.00800000E+00  1.00800000E+00  1.60000000E+01  1.00800000E+00
  1.00800000E+00  1.60000000E+01  1.00800000E+00  1.00800000E+00  1.60000000E+01
  1.00800000E+00  1.00800000E+00  1.60000000E+01  1.00800000E+00  1.00800000E+00
  1.60000000E+01  1.00800000E+00  1.00800000E+00  1.60000000E+01  1.00800000E+00
  1.00800000E+00  1.60000000E+01  1.00800000E+00  1.00800000E+00  1.60000000E+01
  1.00800000E+00  1.00800000E+00  1.60000000E+01  1.00800000E+00  1.00800000E+00
  1.60000000E+01  1.00800000E+00  1.00800000E+00  1.60000000E+01  1.00800000E+00
  1.00800000E+00  1.60000000E+01  1.00800000E+00  1.00800000E+00  1.60000000E+01
  1.00800000E+00  1.00800000E+00  1.60000000E+01  1.00800000E+00  1.00800000E+00
  1.60000000E+01  1.00800000E+00  1.00800000E+00  1.60000000E+01  1.00800000E+00
  1.00800000E+00  1.60000000E+01  1.00800000E+00  1.00800000E+00  1.60000000E+01
  1.00800000E+00  1.00800000E+00  1.60000000E+01  1.00800000E+00  1.00800000E+00
  1.60000000E+01  1.00800000E+00  1.00800000E+00  1.60000000E+01  1.00800000E+00
  1.00800000E+00  1.60000000E+01  1.00800000E+00  1.00800000E+00  1.60000000E+01
  1.00800000E+00  1.00800000E+00  1.60000000E+01  1.00800000E+00  1.00800000E+00
  1.60000000E+01  1.00800000E+00  1.00800000E+00  1.60000000E+01  1.00800000E+00
  1.00800000E+00  1.60000000E+01  1.00800000E+00  1.00800000E+00  1.60000000E+01
  1.00800000E+00  1.00800000E+00  1.60000000E+01  1.00800000E+00  1.00800000E+00
  1.60000000E+01  1.00800000E+00  1.00800000E+00  1.60000000E+01  1.00800000E+00
  1.00800000E+00  1.60000000E+01  1.00800000E+00  1.00800000E+00  1.60000000E+01
  1.00800000E+00  1.00800000E+00  1.60000000E+01  1.00800000E+00  1.00800000E+00
  1.60000000E+01  1.00800000E+00  1.00800000E+00  1.60000000E+01  1.00800000E+00
  1.00800000E+00  1.60000000E+01  1.00800000E+00  1.00800000E+00  1.60000000E+01
  1.00800000E+00  1.00800000E+00  1.60000000E+01  1.00800000E+00  1.00800000E+00
  1.60000000E+01  1.00800000E+00  1.00800000E+00  1.60000000E+01  1.00800000E+00
  1.00800000E+00  1.60000000E+01  1.00800000E+00  1.00800000E+00  1.60000000E+01
  1.00800000E+00  1.00800000E+00  1.60000000E+01  1.00800000E+00  1.00800000E+00
  1.60000000E+01  1.00800000E+00  1.00800000E+00  1.60000000E+01  1.00800000E+00
  1.00800000E+00  1.60000000E+01  1.00800000E+00  1.00800000E+00  1.60000000E+01
  1.00800000E+00  1.00800000E+00  1.60000000E+01  1.00800000E+00  1.00800000E+00
  1.60000000E+01  1.00800000E+00  1.00800000E+00  1.60000000E+01  1.00800000E+00
  1.00800000E+00  1.60000000E+01  1.00800000E+00  1.00800000E+00  1.60000000E+01
  1.00800000E+00  1.00800000E+00  1.60000000E+01  1.00800000E+00  1.00800000E+00
  1.60000000E+01  1.00800000E+00  1.00800000E+00  1.60000000E+01  1.00800000E+00
  1.00800000E+00  1.60000000E+01  1.00800000E+00  1.00800000E+00  1.60000000E+01
  1.00800000E+00  1.00800000E+00  1.60000000E+01  1.00800000E+00  1.00800000E+00
  1.60000000E+01  1.00800000E+00  1.00800000E+00  1.60000000E+01  1.00800000E+00
  1.00800000E+00  1.60000000E+01  1.00800000E+00  1.00800000E+00  1.60000000E+01
  1.00800000E+00  1.00800000E+00  1.60000000E+01  1.00800000E+00  1.00800000E+00
  1.60000000E+01  1.00800000E+00  1.00800000E+00  1.60000000E+01  1.00800000E+00
  1.00800000E+00  1.60000000E+01  1.00800000E+00  1.00800000E+00  1.60000000E+01
  1.00800000E+00  1.00800000E+00  1.60000000E+01  1.00800000E+00  1.00800000E+00
  1.60000000E+01  1.00800000E+00  1.00800000E+00  1.60000000E+01  1.00800000E+00
  1.00800000E+00  1.60000000E+01  1.00800000E+00  1.00800000E+00  1.60000000E+01
  1.00800000E+00  1.00800000E+00  1.60000000E+01  1.00800000E+00  1.00800000E+00
  1.60000000E+01  1.00800000E+00  1.00800000E+00  1.60000000E+01  1.00800000E+00
  1.00800000E+00  1.60000000E+01  1.00800000E+00  1.00800000E+00  1.60000000E+01
  1.00800000E+00  1.00800000E+00  1.60000000E+01  1.00800000E+00  1.00800000E+00
  1.60000000E+01  1.00800000E+00  1.00800000E+00  1.60000000E+01  1.00800000E+00
  1.00800000E+00  1.60000000E+01  1.00800000E+00  1.00800000E+00  1.60000000E+01
  1.00800000E+00  1.00800000E+00  1.60000000E+01  1.00800000E+00  1.00800000E+00
  1.60000000E+01  1.00800000E+00  1.00800000E+00  1.60000000E+01  1.00800000E+00
  1.00800000E+00  1.60000000E+01  1.00800000E+00  1.00800000E+00  1.60000000E+01
  1.00800000E+00  1.00800000E+00  1.60000000E+01  1.00800000E+00  1.00800000E+00
  1.60000000E+01  1.00800000E+00  1.00800000E+00  1.60000000E+01  1.00800000E+00
  1.00800000E+00  1.60000000E+01  1.00800000E+00  1.00800000E+00  1.60000000E+01
  1.00800000E+00  1.00800000E+00  1.60000000E+01  1.00800000E+00  1.00800000E+00
  1.60000000E+01  1.00800000E+00  1.00800000E+00  1.60000000E+01  1.00800000E+00
  1.00800000E+00  1.60000000E+01  1.00800000E+00  1.00800000E+00  1.60000000E+01
  1.00800000E+00  1.00800000E+00  1.60000000E+01  1.00800000E+00  1.00800000E+00
  1.60000000E+01  1.00800000E+00  1.00800000E+00  1.60000000E+01  1.00800000E+00
  1.00800000E+00  1.60000000E+01  1.00800000E+00  1.00800000E+00  1.60000000E+01
  1.00800000E+00  1.00800000E+00  1.60000000E+01  1.00800000E+00  1.00800000E+00
  1.60000000E+01  1.00800000E+00  1.00800000E+00  1.60000000E+01  1.00800000E+00
  1.00800000E+00  1.60000000E+01  1.00800000E+00  1.00800000E+00  1.60000000E+01
  1.00800000E+00  1.00800000E+00  1.60000000E+01  1.00800000E+00  1.00800000E+00
  1.60000000E+01  1.00800000E+00  1.00800000E+00  1.60000000E+01  1.00800000E+00
  1.00800000E+00  1.60000000E+01  1.00800000E+00  1.00800000E+00  1.60000000E+01
  1.00800000E+00  1.00800000E+00  1.60000000E+01  1.00800000E+00  1.00800000E+00
  1.60000000E+01  1.00800000E+00  1.00800000E+00  1.60000000E+01  1.00800000E+00
  1.00800000E+00  1.60000000E+01  1.00800000E+00  1.00800000E+00  1.60000000E+01
  1.00800000E+00  1.00800000E+00  1.60000000E+01  1.00800000E+00  1.00800000E+00
  1.60000000E+01  1.00800000E+00  1.00800000E+00  1.60000000E+01  1.00800000E+00
  1.00800000E+00  1.60000000E+01  1.00800000E+00  1.00800000E+00  1.60000000E+01
  1.00800000E+00  1.00800000E+00  1.60000000E+01  1.00800000E+00  1.00800000E+00
  1.60000000E+01  1.00800000E+00  1.00800000E+00  1.60000000E+01  1.00800000E+00
  1.00800000E+00  1.60000000E+01  1.00800000E+00  1.00800000E+00  1.60000000E+01
  1.00800000E+00  1.00800000E+00  1.60000000E+01  1.00800000E+00  1.00800000E+00
  1.60000000E+01  1.00800000E+00  1.00800000E+00  1.60000000E+01  1.00800000E+00
  1.00800000E+00  1.60000000E+01  1.00800000E+00  1.00800000E+00  1.60000000E+01
  1.00800000E+00  1.00800000E+00  1.60000000E+01  1.00800000E+00  1.00800000E+00
  1.60000000E+01  1.00800000E+00  1.00800000E+00  1.60000000E+01  1.00800000E+00
  1.00800000E+00  1.60000000E+01  1.00800000E+00  1.00800000E+00  1.60000000E+01
  1.00800000E+00  1.00800000E+00  1.60000000E+01  1.00800000E+00  1.00800000E+00
  1.60000000E+01  1.00800000E+00  1.00800000E+00  1.60000000E+01  1.00800000E+00
  1.00800000E+00  1.60000000E+01  1.00800000E+00  1.00800000E+00  1.60000000E+01
  1.00800000E+00  1.00800000E+00  1.60000000E+01  1.00800000E+00  1.00800000E+00
  1.60000000E+01  1.00800000E+00  1.00800000E+00  1.60000000E+01  1.00800000E+00
  1.00800000E+00  1.60000000E+01  1.00800000E+00  1.00800000E+00  1.60000000E+01
  1.00800000E+00  1.00800000E+00  1.60000000E+01  1.00800000E+00  1.00800000E+00
  1.60000000E+01  1.00800000E+00  1.00800000E+00  1.60000000E+01  1.00800000E+00
  1.00800000E+00  1.60000000E+01  1.00800000E+00  1.00800000E+00  1.60000000E+01
  1.00800000E+00  1.00800000E+00  1.60000000E+01  1.00800000E+00  1.00800000E+00
  1.60000000E+01  1.00800000E+00  1.00800000E+00  1.60000000E+01  1.00800000E+00
  1.00800000E+00  1.60000000E+01  1.00800000E+00  1.00800000E+00  1.60000000E+01
  1.00800000E+00  1.00800000E+00  1.60000000E+01  1.00800000E+00  1.00800000E+00
  1.60000000E+01  1.00800000E+00  1.00800000E+00  1.60000000E+01  1.00800000E+00
  1.00800000E+00  1.60000000E+01  1.00800000E+00  1.00800000E+00  1.60000000E+01
  1.00800000E+00  1.00800000E+00  1.60000000E+01  1.00800000E+00  1.00800000E+00
  1.60000000E+01  1.00800000E+00  1.00800000E+00  1.60000000E+01  1.00800000E+00
  1.00800000E+00  1.60000000E+01  1.00800000E+00  1.00800000E+00  1.60000000E+01
  1.00800000E+00  1.00800000E+00  1.60000000E+01  1.00800000E+00  1.00800000E+00
  1.60000000E+01  1.00800000E+00  1.00800000E+00  1.60000000E+01  1.00800000E+00
  1.00800000E+00  1.60000000E+01  1.00800000E+00  1.00800000E+00  1.60000000E+01
  1.00800000E+00  1.00800000E+00  1.60000000E+01  1.00800000E+00  1.00800000E+00
  1.60000000E+01  1.00800000E+00  1.00800000E+00  1.60000000E+01  1.00800000E+00
  1.00800000E+00  1.60000000E+01  1.00800000E+00  1.00800000E+00  1.60000000E+01
  1.00800000E+00  1.00800000E+00  1.60000000E+01  1.00800000E+00  1.00800000E+00
  1.60000000E+01  1.00800000E+00  1.00800000E+00  1.60000000E+01  1.00800000E+00
  1.00800000E+00  1.60000000E+01  1.00800000E+00  1.00800000E+00  1.60000000E+01
  1.00800000E+00  1.00800000E+00  1.60000000E+01  1.00800000E+00  1.00800000E+00
  1.60000000E+01  1.00800000E+00  1.00800000E+00  1.60000000E+01  1.00800000E+00
  1.00800000E+00  1.60000000E+01  1.00800000E+00  1.00800000E+00  1.60000000E+01
  1.00800000E+00  1.00800000E+00  1.60000000E+01  1.00800000E+00  1.00800000E+00
  1.60000000E+01  1.00800000E+00  1.00800000E+00  1.60000000E+01  1.00800000E+00
  1.00800000E+00  1.60000000E+01  1.00800000E+00  1.00800000E+00  1.60000000E+01
  1.00800000E+00  1.00800000E+00  1.60000000E+01  1.00800000E+00  1.00800000E+00
  1.60000000E+01  1.00800000E+00  1.00800000E+00  1.60000000E+01  1.00800000E+00
  1.00800000E+00  1.60000000E+01  1.00800000E+00  1.00800000E+00  1.60000000E+01
  1.00800000E+00  1.00800000E+00  1.60000000E+01  1.00800000E+00  1.00800000E+00
  1.60000000E+01  1.00800000E+00  1.00800000E+00  1.60000000E+01  1.00800000E+00
  1.00800000E+00  1.60000000E+01  1.00800000E+00  1.00800000E+00  1.60000000E+01
  1.00800000E+00  1.00800000E+00  1.60000000E+01  1.00800000E+00  1.00800000E+00
  1.60000000E+01  1.00800000E+00  1.00800000E+00  1.60000000E+01  1.00800000E+00
  1.00800000E+00  1.60000000E+01  1.00800000E+00  1.00800000E+00  1.60000000E+01
  1.00800000E+00  1.00800000E+00  1.60000000E+01  1.00800000E+00  1.00800000E+00
  1.60000000E+01  1.00800000E+00  1.00800000E+00  1.60000000E+01  1.00800000E+00
  1.00800000E+00  1.60000000E+01  1.00800000E+00  1.00800000E+00  1.60000000E+01
  1.00800000E+00  1.00800000E+00  1.60000000E+01  1.00800000E+00  1.00800000E+00
  1.60000000E+01  1.00800000E+00  1.00800000E+00  1.60000000E+01  1.00800000E+00
  1.00800000E+00  1.60000000E+01  1.00800000E+00  1.00800000E+00  1.60000000E+01
  1.00800000E+00  1.00800000E+00  1.60000000E+01  1.00800000E+00  1.00800000E+00
  1.60000000E+01  1.00800000E+00  1.00800000E+00  1.60000000E+01  1.00800000E+00
  1.00800000E+00  1.60000000E+01  1.00800000E+00  1.00800000E+00  1.60000000E+01
  1.00800000E+00  1.00800000E+00  1.60000000E+01  1.00800000E+00  1.00800000E+00
  1.60000000E+01  1.00800000E+00  1.00800000E+00  1.60000000E+01  1.00800000E+00
  1.00800000E+00  1.60000000E+01  1.00800000E+00  1.00800000E+00  1.60000000E+01
  1.00800000E+00  1.00800000E+00  1.60000000E+01  1.00800000E+00  1.00800000E+00
  1.60000000E+01  1.00800000E+00  1.00800000E+00  1.60000000E+01  1.00800000E+00
  1.00800000E+00  1.60000000E+01  1.00800000E+00  1.00800000E+00  1.60000000E+01
  1.00800000E+00  1.00800000E+00  1.60000000E+01  1.00800000E+00  1.00800000E+00
  1.60000000E+01  1.00800000E+00  1.00800000E+00  1.60000000E+01  1.00800000E+00
  1.00800000E+00  1.60000000E+01  1.00800000E+00  1.00800000E+00  1.60000000E+01
  1.00800000E+00  1.00800000E+00  1.60000000E+01  1.00800000E+00  1.00800000E+00
  1.60000000E+01  1.00800000E+00  1.00800000E+00  1.60000000E+01  1.00800000E+00
  1.00800000E+00  1.60000000E+01  1.00800000E+00  1.00800000E+00  1.60000000E+01
  1.00800000E+00  1.00800000E+00  1.60000000E+01  1.00800000E+00  1.00800000E+00
  1.60000000E+01  1.00800000E+00  1.00800000E+00  1.60000000E+01  1.00800000E+00
  1.00800000E+00  1.60000000E+01  1.00800000E+00  1.00800000E+00  1.60000000E+01
  1.00800000E+00  1.00800000E+00  1.60000000E+01  1.00800000E+00  1.00800000E+00
  1.60000000E+01  1.00800000E+00  1.00800000E+00  1.60000000E+01  1.00800000E+00
  1.00800000E+00  1.60000000E+01  1.00800000E+00  1.00800000E+00  1.60000000E+01
  1.00800000E+00  1.00800000E+00  1.60000000E+01  1.00800000E+00  1.00800000E+00
  1.60000000E+01  1.00800000E+00  1.00800000E+00  1.60000000E+01  1.00800000E+00
  1.00800000E+00  1.60000000E+01  1.00800000E+00  1.00800000E+00  1.60000000E+01
  1.00800000E+00  1.00800000E+00  1.60000000E+01  1.00800000E+00  1.00800000E+00
  1.60000000E+01  1.00800000E+00  1.00800000E+00  1.60000000E+01  1.00800000E+00
  1.00800000E+00  1.60000000E+01  1.00800000E+00  1.00800000E+00  1.60000000E+01
  1.00800000E+00  1.00800000E+00  1.60000000E+01  1.00800000E+00  1.00800000E+00
  1.60000000E+01  1.00800000E+00  1.00800000E+00  1.60000000E+01  1.00800000E+00
  1.00800000E+00  1.60000000E+01  1.00800000E+00  1.00800000E+00  1.60000000E+01
  1.00800000E+00  1.00800000E+00  1.60000000E+01  1.00800000E+00  1.00800000E+00
  1.60000000E+01  1.00800000E+00  1.00800000E+00  1.60000000E+01  1.00800000E+00
  1.00800000E+00  1.60000000E+01  1.00800000E+00  1.00800000E+00  1.60000000E+01
  1.00800000E+00  1.00800000E+00  1.60000000E+01  1.00800000E+00  1.00800000E+00
  1.60000000E+01  1.00800000E+00  1.00800000E+00  1.60000000E+01  1.00800000E+00
  1.00800000E+00  1.60000000E+01  1.00800000E+00  1.00800000E+00  1.60000000E+01
  1.00800000E+00  1.00800000E+00  1.60000000E+01  1.00800000E+00  1.00800000E+00
  1.60000000E+01  1.00800000E+00  1.00800000E+00  1.60000000E+01  1.00800000E+00
  1.00800000E+00  1.60000000E+01  1.00800000E+00  1.00800000E+00  1.60000000E+01
  1.00800000E+00  1.00800000E+00  1.60000000E+01  1.00800000E+00  1.00800000E+00
  1.60000000E+01  1.00800000E+00  1.00800000E+00  1.60000000E+01  1.00800000E+00
  1.00800000E+00  1.60000000E+01  1.00800000E+00  1.00800000E+00  1.60000000E+01
  1.00800000E+00  1.00800000E+00  1.60000000E+01  1.00800000E+00  1.00800000E+00
  1.60000000E+01  1.00800000E+00  1.00800000E+00  1.60000000E+01  1.00800000E+00
  1.00800000E+00  1.60000000E+01  1.00800000E+00  1.00800000E+00  1.60000000E+01
  1.00800000E+00  1.00800000E+00  1.60000000E+01  1.00800000E+00  1.00800000E+00
  1.60000000E+01  1.00800000E+00  1.00800000E+00  1.60000000E+01  1.00800000E+00
  1.00800000E+00  1.60000000E+01  1.00800000E+00  1.00800000E+00  1.60000000E+01
  1.00800000E+00  1.00800000E+00  1.60000000E+01  1.00800000E+00  1.00800000E+00
  1.60000000E+01  1.00800000E+00  1.00800000E+00  1.60000000E+01  1.00800000E+00
  1.00800000E+00  1.60000000E+01  1.00800000E+00  1.00800000E+00  1.60000000E+01
  1.00800000E+00  1.00800000E+00  1.60000000E+01  1.00800000E+00  1.00800000E+00
  1.60000000E+01  1.00800000E+00  1.00800000E+00  1.60000000E+01  1.00800000E+00
  1.00800000E+00  1.60000000E+01  1.00800000E+00  1.00800000E+00  1.60000000E+01
  1.00800000E+00  1.00800000E+00  1.60000000E+01  1.00800000E+00  1.00800000E+00
  1.60000000E+01  1.00800000E+00  1.00800000E+00  1.60000000E+01  1.00800000E+00
  1.00800000E+00  1.60000000E+01  1.00800000E+00  1.00800000E+00  1.60000000E+01
  1.00800000E+00  1.00800000E+00  1.60000000E+01  1.00800000E+00  1.00800000E+00
  1.60000000E+01  1.00800000E+00  1.00800000E+00  1.60000000E+01  1.00800000E+00
  1.00800000E+00  1.60000000E+01  1.00800000E+00  1.00800000E+00  1.60000000E+01
  1.00800000E+00  1.00800000E+00  1.60000000E+01  1.00800000E+00  1.00800000E+00
  1.60000000E+01  1.00800000E+00  1.00800000E+00  1.60000000E+01  1.00800000E+00
  1.00800000E+00  1.60000000E+01  1.00800000E+00  1.00800000E+00  1.60000000E+01
  1.00800000E+00  1.00800000E+00  1.60000000E+01  1.00800000E+00  1.00800000E+00
  1.60000000E+01  1.00800000E+00  1.00800000E+00  1.60000000E+01  1.00800000E+00
  1.00800000E+00  1.60000000E+01  1.00800000E+00  1.00800000E+00  1.60000000E+01
  1.00800000E+00  1.00800000E+00  1.60000000E+01  1.00800000E+00  1.00800000E+00
  1.60000000E+01  1.00800000E+00  1.00800000E+00  1.60000000E+01  1.00800000E+00
  1.00800000E+00  1.60000000E+01  1.00800000E+00  1.00800000E+00  1.60000000E+01
  1.00800000E+00  1.00800000E+00  1.60000000E+01  1.00800000E+00  1.00800000E+00
  1.60000000E+01  1.00800000E+00  1.00800000E+00  1.60000000E+01  1.00800000E+00
  1.00800000E+00  1.60000000E+01  1.00800000E+00  1.00800000E+00  1.60000000E+01
  1.00800000E+00  1.00800000E+00  1.60000000E+01  1.00800000E+00  1.00800000E+00
  1.60000000E+01  1.00800000E+00  1.00800000E+00  1.60000000E+01  1.00800000E+00
  1.00800000E+00  1.60000000E+01  1.00800000E+00  1.00800000E+00  1.60000000E+01
  1.00800000E+00  1.00800000E+00  1.60000000E+01  1.00800000E+00  1.00800000E+00
  1.60000000E+01  1.00800000E+00  1.00800000E+00  1.60000000E+01  1.00800000E+00
  1.00800000E+00  1.60000000E+01  1.00800000E+00  1.00800000E+00  1.60000000E+01
  1.00800000E+00  1.00800000E+00  1.60000000E+01  1.00800000E+00  1.00800000E+00
  1.60000000E+01  1.00800000E+00  1.00800000E+00  1.60000000E+01  1.00800000E+00
  1.00800000E+00  1.60000000E+01  1.00800000E+00  1.00800000E+00  1.60000000E+01
  1.00800000E+00  1.00800000E+00  1.60000000E+01  1.00800000E+00  1.00800000E+00
  1.60000000E+01  1.00800000E+00  1.00800000E+00  1.60000000E+01  1.00800000E+00
  1.00800000E+00  1.60000000E+01  1.00800000E+00  1.00800000E+00  1.60000000E+01
  1.00800000E+00  1.00800000E+00  1.60000000E+01  1.00800000E+00  1.00800000E+00
  1.60000000E+01  1.00800000E+00  1.00800000E+00  1.60000000E+01  1.00800000E+00
  1.00800000E+00  1.60000000E+01  1.00800000E+00  1.00800000E+00  1.60000000E+01
  1.00800000E+00  1.00800000E+00  1.60000000E+01  1.00800000E+00  1.00800000E+00
  1.60000000E+01  1.00800000E+00  1.00800000E+00  1.60000000E+01  1.00800000E+00
  1.00800000E+00  1.60000000E+01  1.00800000E+00  1.00800000E+00  1.60000000E+01
  1.00800000E+00  1.00800000E+00  1.60000000E+01  1.00800000E+00  1.00800000E+00
  1.60000000E+01  1.00800000E+00  1.00800000E+00  1.60000000E+01  1.00800000E+00
  1.00800000E+00  1.60000000E+01  1.00800000E+00  1.00800000E+00  1.60000000E+01
  1.00800000E+00  1.00800000E+00  1.60000000E+01  1.00800000E+00  1.00800000E+00
  1.60000000E+01  1.00800000E+00  1.00800000E+00  1.60000000E+01  1.00800000E+00
  1.00800000E+00  1.60000000E+01  1.00800000E+00  1.00800000E+00  1.60000000E+01
  1.00800000E+00  1.00800000E+00  1.60000000E+01  1.00800000E+00  1.00800000E+00
  1.60000000E+01  1.00800000E+00  1.00800000E+00  1.60000000E+01  1.00800000E+00
  1.00800000E+00  1.60000000E+01  1.00800000E+00  1.00800000E+00  1.60000000E+01
  1.00800000E+00  1.00800000E+00  1.60000000E+01  1.00800000E+00  1.00800000E+00
  1.60000000E+01  1.00800000E+00  1.00800000E+00  1.60000000E+01  1.00800000E+00
  1.00800000E+00  1.60000000E+01  1.00800000E+00  1.00800000E+00  1.60000000E+01
  1.00800000E+00  1.00800000E+00  1.60000000E+01  1.00800000E+00  1.00800000E+00
  1.60000000E+01  1.00800000E+00  1.00800000E+00  1.60000000E+01  1.00800000E+00
  1.00800000E+00  1.60000000E+01  1.00800000E+00  1.00800000E+00  1.60000000E+01
  1.00800000E+00  1.00800000E+00  1.60000000E+01  1.00800000E+00  1.00800000E+00
  1.60000000E+01  1.00800000E+00  1.00800000E+00  1.60000000E+01  1.00800000E+00
  1.00800000E+00  1.60000000E+01  1.00800000E+00  1.00800000E+00  1.60000000E+01
  1.00800000E+00  1.00800000E+00  1.60000000E+01  1.00800000E+00  1.00800000E+00
  1.60000000E+01  1.00800000E+00  1.00800000E+00  1.60000000E+01  1.00800000E+00
  1.00800000E+00  1.60000000E+01  1.00800000E+00  1.00800000E+00  1.60000000E+01
  1.00800000E+00  1.00800000E+00  1.60000000E+01  1.00800000E+00  1.00800000E+00
  1.60000000E+01  1.00800000E+00  1.00800000E+00  1.60000000E+01  1.00800000E+00
  1.00800000E+00  1.60000000E+01  1.00800000E+00  1.00800000E+00  1.60000000E+01
  1.00800000E+00  1.00800000E+00  1.60000000E+01  1.00800000E+00  1.00800000E+00
  1.60000000E+01  1.00800000E+00  1.00800000E+00  1.60000000E+01  1.00800000E+00
  1.00800000E+00  1.60000000E+01  1.00800000E+00  1.00800000E+00  1.60000000E+01
  1.00800000E+00  1.00800000E+00  1.60000000E+01  1.00800000E+00  1.00800000E+00
  1.60000000E+01  1.00800000E+00  1.00800000E+00  1.60000000E+01  1.00800000E+00
  1.00800000E+00  1.60000000E+01  1.00800000E+00  1.00800000E+00  1.60000000E+01
  1.00800000E+00  1.00800000E+00  1.60000000E+01  1.00800000E+00  1.00800000E+00
  1.60000000E+01  1.00800000E+00  1.00800000E+00  1.60000000E+01  1.00800000E+00
  1.00800000E+00  1.60000000E+01  1.00800000E+00  1.00800000E+00  1.60000000E+01
  1.00800000E+00  1.00800000E+00  1.60000000E+01  1.00800000E+00  1.00800000E+00
  1.60000000E+01  1.00800000E+00  1.00800000E+00  1.60000000E+01  1.00800000E+00
  1.00800000E+00  1.60000000E+01  1.00800000E+00  1.00800000E+00  1.60000000E+01
  1.00800000E+00  1.00800000E+00  1.60000000E+01  1.00800000E+00  1.00800000E+00
  1.60000000E+01  1.00800000E+00  1.00800000E+00  1.60000000E+01  1.00800000E+00
  1.00800000E+00  1.60000000E+01  1.00800000E+00  1.00800000E+00  1.60000000E+01
  1.00800000E+00  1.00800000E+00  1.60000000E+01  1.00800000E+00  1.00800000E+00
  1.60000000E+01  1.00800000E+00  1.00800000E+00  1.60000000E+01  1.00800000E+00
  1.00800000E+00  1.60000000E+01  1.00800000E+00  1.00800000E+00  1.60000000E+01
  1.00800000E+00  1.00800000E+00  1.60000000E+01  1.00800000E+00  1.00800000E+00
  1.60000000E+01  1.00800000E+00  1.00800000E+00  1.60000000E+01  1.00800000E+00
  1.00800000E+00  1.60000000E+01  1.00800000E+00  1.00800000E+00  1.60000000E+01
  1.00800000E+00  1.00800000E+00  1.60000000E+01  1.00800000E+00  1.00800000E+00
  1.60000000E+01  1.00800000E+00  1.00800000E+00  1.60000000E+01  1.00800000E+00
  1.00800000E+00  1.60000000E+01  1.00800000E+00  1.00800000E+00  1.60000000E+01
  1.00800000E+00  1.00800000E+00  1.60000000E+01  1.00800000E+00  1.00800000E+00
  1.60000000E+01  1.00800000E+00  1.00800000E+00  1.60000000E+01  1.00800000E+00
  1.00800000E+00  1.60000000E+01  1.00800000E+00  1.00800000E+00  1.60000000E+01
  1.00800000E+00  1.00800000E+00  1.60000000E+01  1.00800000E+00  1.00800000E+00
  1.60000000E+01  1.00800000E+00  1.00800000E+00  1.60000000E+01  1.00800000E+00
  1.00800000E+00  1.60000000E+01  1.00800000E+00  1.00800000E+00  1.60000000E+01
  1.00800000E+00  1.00800000E+00  1.60000000E+01  1.00800000E+00  1.00800000E+00
  1.60000000E+01  1.00800000E+00  1.00800000E+00  1.60000000E+01  1.00800000E+00
  1.00800000E+00  1.60000000E+01  1.00800000E+00  1.00800000E+00  1.60000000E+01
  1.00800000E+00  1.00800000E+00  1.60000000E+01  1.00800000E+00  1.00800000E+00
  1.60000000E+01  1.00800000E+00  1.00800000E+00  1.60000000E+01  1.00800000E+00
  1.00800000E+00  1.60000000E+01  1.00800000E+00  1.00800000E+00  1.60000000E+01
  1.00800000E+00  1.00800000E+00  1.60000000E+01  1.00800000E+00  1.00800000E+00
  1.60000000E+01  1.00800000E+00  1.00800000E+00  1.60000000E+01  1.00800000E+00
  1.00800000E+00  1.60000000E+01  1.00800000E+00  1.00800000E+00  1.60000000E+01
  1.00800000E+00  1.00800000E+00  1.60000000E+01  1.00800000E+00  1.00800000E+00
  1.60000000E+01  1.00800000E+00  1.00800000E+00  1.60000000E+01  1.00800000E+00
  1.00800000E+00  1.60000000E+01  1.00800000E+00  1.00800000E+00  1.60000000E+01
  1.00800000E+00  1.00800000E+00  1.60000000E+01  1.00800000E+00  1.00800000E+00
  1.60000000E+01  1.00800000E+00  1.00800000E+00  1.60000000E+01  1.00800000E+00
  1.00800000E+00  1.60000000E+01  1.00800000E+00  1.00800000E+00  1.60000000E+01
  1.00800000E+00  1.00800000E+00  1.60000000E+01  1.00800000E+00  1.00800000E+00
  1.60000000E+01  1.00800000E+00  1.00800000E+00  1.60000000E+01  1.00800000E+00
  1.00800000E+00  1.60000000E+01  1.00800000E+00  1.00800000E+00  1.60000000E+01
  1.00800000E+00  1.00800000E+00  1.60000000E+01  1.00800000E+00  1.00800000E+00
  1.60000000E+01  1.00800000E+00  1.00800000E+00  1.60000000E+01  1.00800000E+00
  1.00800000E+00  1.60000000E+01  1.00800000E+00  1.00800000E+00  1.60000000E+01
  1.00800000E+00  1.00800000E+00  1.60000000E+01  1.00800000E+00  1.00800000E+00
  1.60000000E+01  1.00800000E+00  1.00800000E+00  1.60000000E+01  1.00800000E+00
  1.00800000E+00  1.60000000E+01  1.00800000E+00  1.00800000E+00  1.60000000E+01
  1.00800000E+00  1.00800000E+00  1.60000000E+01  1.00800000E+00  1.00800000E+00
  1.60000000E+01  1.00800000E+00  1.00800000E+00  1.60000000E+01  1.00800000E+00
  1.00800000E+00  1.60000000E+01  1.00800000E+00  1.00800000E+00  1.60000000E+01
  1.00800000E+00  1.00800000E+00  1.60000000E+01  1.00800000E+00  1.00800000E+00
  1.60000000E+01  1.00800000E+00  1.00800000E+00  1.60000000E+01  1.00800000E+00
  1.00800000E+00  1.60000000E+01  1.00800000E+00  1.00800000E+00  1.60000000E+01
  1.00800000E+00  1.00800000E+00  1.60000000E+01  1.00800000E+00  1.00800000E+00
  1.60000000E+01  1.00800000E+00  1.00800000E+00  1.60000000E+01  1.00800000E+00
  1.00800000E+00  1.60000000E+01  1.00800000E+00  1.00800000E+00  1.60000000E+01
  1.00800000E+00  1.00800000E+00  1.60000000E+01  1.00800000E+00  1.00800000E+00
  1.60000000E+01  1.00800000E+00  1.00800000E+00  1.60000000E+01  1.00800000E+00
  1.00800000E+00  1.60000000E+01  1.00800000E+00  1.00800000E+00  1.60000000E+01
  1.00800000E+00  1.00800000E+00  1.60000000E+01  1.00800000E+00  1.00800000E+00
  1.60000000E+01  1.00800000E+00  1.00800000E+00  1.60000000E+01  1.00800000E+00
  1.00800000E+00  1.60000000E+01  1.00800000E+00  1.00800000E+00  1.60000000E+01
  1.00800000E+00  1.00800000E+00  1.60000000E+01  1.00800000E+00  1.00800000E+00
  1.60000000E+01  1.00800000E+00  1.00800000E+00  1.60000000E+01  1.00800000E+00
  1.00800000E+00  1.60000000E+01  1.00800000E+00  1.00800000E+00  1.60000000E+01
  1.00800000E+00  1.00800000E+00  1.60000000E+01  1.00800000E+00  1.00800000E+00
  1.60000000E+01  1.00800000E+00  1.00800000E+00  1.60000000E+01  1.00800000E+00
  1.00800000E+00  1.60000000E+01  1.00800000E+00  1.00800000E+00  1.60000000E+01
  1.00800000E+00  1.00800000E+00  1.60000000E+01  1.00800000E+00  1.00800000E+00
  1.60000000E+01  1.00800000E+00  1.00800000E+00  1.60000000E+01  1.00800000E+00
  1.00800000E+00  1.60000000E+01  1.00800000E+00  1.00800000E+00  1.60000000E+01
  1.00800000E+00  1.00800000E+00  1.60000000E+01  1.00800000E+00  1.00800000E+00
  1.60000000E+01  1.00800000E+00  1.00800000E+00  1.60000000E+01  1.00800000E+00
  1.00800000E+00  1.60000000E+01  1.00800000E+00  1.00800000E+00  1.60000000E+01
  1.00800000E+00  1.00800000E+00  1.60000000E+01  1.00800000E+00  1.00800000E+00
  1.60000000E+01  1.00800000E+00  1.00800000E+00  1.60000000E+01  1.00800000E+00
  1.00800000E+00  1.60000000E+01  1.00800000E+00  1.00800000E+00  1.60000000E+01
  1.00800000E+00  1.00800000E+00  1.60000000E+01  1.00800000E+00  1.00800000E+00
  1.60000000E+01  1.00800000E+00  1.00800000E+00  1.60000000E+01  1.00800000E+00
  1.00800000E+00  1.60000000E+01  1.00800000E+00  1.00800000E+00  1.60000000E+01
  1.00800000E+00  1.00800000E+00  1.60000000E+01  1.00800000E+00  1.00800000E+00
  1.60000000E+01  1.00800000E+00  1.00800000E+00  1.60000000E+01  1.00800000E+00
  1.00800000E+00  1.60000000E+01  1.00800000E+00  1.00800000E+00  1.60000000E+01
  1.00800000E+00  1.00800000E+00  1.60000000E+01  1.00800000E+00  1.00800000E+00
  1.60000000E+01  1.00800000E+00  1.00800000E+00  1.60000000E+01  1.00800000E+00
  1.00800000E+00  1.60000000E+01  1.00800000E+00  1.00800000E+00  1.60000000E+01
  1.00800000E+00  1.00800000E+00  1.60000000E+01  1.00800000E+00  1.00800000E+00
  1.60000000E+01  1.00800000E+00  1.00800000E+00  1.60000000E+01  1.00800000E+00
  1.00800000E+00  1.60000000E+01  1.00800000E+00  1.00800000E+00  1.60000000E+01
  1.00800000E+00  1.00800000E+00  1.60000000E+01  1.00800000E+00  1.00800000E+00
  1.60000000E+01  1.00800000E+00  1.00800000E+00  1.60000000E+01  1.00800000E+00
  1.00800000E+00  1.60000000E+01  1.00800000E+00  1.00800000E+00  1.60000000E+01
  1.00800000E+00  1.00800000E+00  1.60000000E+01  1.00800000E+00  1.00800000E+00
  1.60000000E+01  1.00800000E+00  1.00800000E+00  1.60000000E+01  1.00800000E+00
  1.00800000E+00  1.60000000E+01  1.00800000E+00  1.00800000E+00  1.60000000E+01
  1.00800000E+00  1.00800000E+00  1.60000000E+01  1.00800000E+00  1.00800000E+00
  1.60000000E+01  1.00800000E+00  1.00800000E+00  1.60000000E+01  1.00800000E+00
  1.00800000E+00  1.60000000E+01  1.00800000E+00  1.00800000E+00  1.60000000E+01
  1.00800000E+00  1.00800000E+00  1.60000000E+01  1.00800000E+00  1.00800000E+00
  1.60000000E+01  1.00800000E+00  1.00800000E+00  1.60000000E+01  1.00800000E+00
  1.00800000E+00  1.60000000E+01  1.00800000E+00  1.00800000E+00  1.60000000E+01
  1.00800000E+00  1.00800000E+00  1.60000000E+01  1.00800000E+00  1.00800000E+00
  1.60000000E+01  1.00800000E+00  1.00800000E+00  1.60000000E+01  1.00800000E+00
  1.00800000E+00  1.60000000E+01  1.00800000E+00  1.00800000E+00  1.60000000E+01
  1.00800000E+00  1.00800000E+00  1.60000000E+01  1.00800000E+00  1.00800000E+00
  1.60000000E+01  1.00800000E+00  1.00800000E+00  1.60000000E+01  1.00800000E+00
  1.00800000E+00  1.60000000E+01  1.00800000E+00  1.00800000E+00  1.60000000E+01
  1.00800000E+00  1.00800000E+00  1.60000000E+01  1.00800000E+00  1.00800000E+00
  1.60000000E+01  1.00800000E+00  1.00800000E+00  1.60000000E+01  1.00800000E+00
  1.00800000E+00  1.60000000E+01  1.00800000E+00  1.00800000E+00  1.60000000E+01
  1.00800000E+00  1.00800000E+00  1.60000000E+01  1.00800000E+00  1.00800000E+00
  1.60000000E+01  1.00800000E+00  1.00800000E+00  1.60000000E+01  1.00800000E+00
  1.00800000E+00  1.60000000E+01  1.00800000E+00  1.00800000E+00  1.60000000E+01
  1.00800000E+00  1.00800000E+00  1.60000000E+01  1.00800000E+00  1.00800000E+00
  1.60000000E+01  1.00800000E+00  1.00800000E+00  1.60000000E+01  1.00800000E+00
  1.00800000E+00  1.60000000E+01  1.00800000E+00  1.00800000E+00  1.60000000E+01
  1.00800000E+00  1.00800000E+00  1.60000000E+01  1.00800000E+00  1.00800000E+00
  1.60000000E+01  1.00800000E+00  1.00800000E+00  1.60000000E+01  1.00800000E+00
  1.00800000E+00  1.60000000E+01  1.00800000E+00  1.00800000E+00  1.60000000E+01
  1.00800000E+00  1.00800000E+00  1.60000000E+01  1.00800000E+00  1.00800000E+00
  1.60000000E+01  1.00800000E+00  1.00800000E+00  1.60000000E+01  1.00800000E+00
  1.00800000E+00  1.60000000E+01  1.00800000E+00  1.00800000E+00  1.60000000E+01
  1.00800000E+00  1.00800000E+00  1.60000000E+01  1.00800000E+00  1.00800000E+00
  1.60000000E+01  1.00800000E+00  1.00800000E+00  1.60000000E+01  1.00800000E+00
  1.00800000E+00  1.60000000E+01  1.00800000E+00  1.00800000E+00  1.60000000E+01
  1.00800000E+00  1.00800000E+00  1.60000000E+01  1.00800000E+00  1.00800000E+00
  1.60000000E+01  1.00800000E+00  1.00800000E+00  1.60000000E+01  1.00800000E+00
  1.00800000E+00  1.60000000E+01  1.00800000E+00  1.00800000E+00  1.60000000E+01
  1.00800000E+00  1.00800000E+00  1.60000000E+01  1.00800000E+00  1.00800000E+00
  1.60000000E+01  1.00800000E+00  1.00800000E+00  1.60000000E+01  1.00800000E+00
  1.00800000E+00  1.60000000E+01  1.00800000E+00  1.00800000E+00  1.60000000E+01
  1.00800000E+00  1.00800000E+00  1.60000000E+01  1.00800000E+00  1.00800000E+00
  1.60000000E+01  1.00800000E+00  1.00800000E+00  1.60000000E+01  1.00800000E+00
  1.00800000E+00  1.60000000E+01  1.00800000E+00  1.00800000E+00  1.60000000E+01
  1.00800000E+00  1.00800000E+00  1.60000000E+01  1.00800000E+00  1.00800000E+00
  1.60000000E+01  1.00800000E+00  1.00800000E+00  1.60000000E+01  1.00800000E+00
  1.00800000E+00  1.60000000E+01  1.00800000E+00  1.00800000E+00  1.60000000E+01
  1.00800000E+00  1.00800000E+00  1.60000000E+01  1.00800000E+00  1.00800000E+00
  1.60000000E+01  1.00800000E+00  1.00800000E+00  1.60000000E+01  1.00800000E+00
  1.00800000E+00  1.60000000E+01  1.00800000E+00  1.00800000E+00  1.60000000E+01
  1.00800000E+00  1.00800000E+00  1.60000000E+01  1.00800000E+00  1.00800000E+00
  1.60000000E+01  1.00800000E+00  1.00800000E+00  1.60000000E+01  1.00800000E+00
  1.00800000E+00  1.60000000E+01  1.00800000E+00  1.00800000E+00  1.60000000E+01
  1.00800000E+00  1.00800000E+00  1.60000000E+01  1.00800000E+00  1.00800000E+00
  1.60000000E+01  1.00800000E+00  1.00800000E+00  1.60000000E+01  1.00800000E+00
  1.00800000E+00  1.60000000E+01  1.00800000E+00  1.00800000E+00  1.60000000E+01
  1.00800000E+00  1.00800000E+00  1.60000000E+01  1.00800000E+00  1.00800000E+00
  1.60000000E+01  1.00800000E+00  1.00800000E+00  1.60000000E+01  1.00800000E+00
  1.00800000E+00  1.60000000E+01  1.00800000E+00  1.00800000E+00  1.60000000E+01
  1.00800000E+00  1.00800000E+00  1.60000000E+01  1.00800000E+00  1.00800000E+00
  1.60000000E+01  1.00800000E+00  1.00800000E+00  1.60000000E+01  1.00800000E+00
  1.00800000E+00  1.60000000E+01  1.00800000E+00  1.00800000E+00  1.60000000E+01
  1.00800000E+00  1.00800000E+00  1.60000000E+01  1.00800000E+00  1.00800000E+00
  1.60000000E+01  1.00800000E+00  1.00800000E+00  1.60000000E+01  1.00800000E+00
  1.00800000E+00  1.60000000E+01  1.00800000E+00  1.00800000E+00  1.60000000E+01
  1.00800000E+00  1.00800000E+00  1.60000000E+01  1.00800000E+00  1.00800000E+00
  1.60000000E+01  1.00800000E+00  1.00800000E+00  1.60000000E+01  1.00800000E+00
  1.00800000E+00  1.60000000E+01  1.00800000E+00  1.00800000E+00  1.60000000E+01
  1.00800000E+00  1.00800000E+00  1.60000000E+01  1.00800000E+00  1.00800000E+00
  1.60000000E+01  1.00800000E+00  1.00800000E+00  1.60000000E+01  1.00800000E+00
  1.00800000E+00  1.60000000E+01  1.00800000E+00  1.00800000E+00  1.60000000E+01
  1.00800000E+00  1.00800000E+00  1.60000000E+01  1.00800000E+00  1.00800000E+00
  1.60000000E+01  1.00800000E+00  1.00800000E+00  1.60000000E+01  1.00800000E+00
  1.00800000E+00  1.60000000E+01  1.00800000E+00  1.00800000E+00  1.60000000E+01
  1.00800000E+00  1.00800000E+00  1.60000000E+01  1.00800000E+00  1.00800000E+00
  1.60000000E+01  1.00800000E+00  1.00800000E+00  1.60000000E+01  1.00800000E+00
  1.00800000E+00  1.60000000E+01  1.00800000E+00  1.00800000E+00  1.60000000E+01
  1.00800000E+00  1.00800000E+00  1.60000000E+01  1.00800000E+00  1.00800000E+00
  1.60000000E+01  1.00800000E+00  1.00800000E+00  1.60000000E+01  1.00800000E+00
  1.00800000E+00  1.60000000E+01  1.00800000E+00  1.00800000E+00  1.60000000E+01
  1.00800000E+00  1.00800000E+00  1.60000000E+01  1.00800000E+00  1.00800000E+00
  1.60000000E+01  1.00800000E+00  1.00800000E+00  1.60000000E+01  1.00800000E+00
  1.00800000E+00  1.60000000E+01  1.00800000E+00  1.00800000E+00  1.60000000E+01
  1.00800000E+00  1.00800000E+00  1.60000000E+01  1.00800000E+00  1.00800000E+00
  1.60000000E+01  1.00800000E+00  1.00800000E+00  1.60000000E+01  1.00800000E+00
  1.00800000E+00  1.60000000E+01  1.00800000E+00  1.00800000E+00  1.60000000E+01
  1.00800000E+00  1.00800000E+00  1.60000000E+01  1.00800000E+00  1.00800000E+00
  1.60000000E+01  1.00800000E+00  1.00800000E+00  1.60000000E+01  1.00800000E+00
  1.00800000E+00  1.60000000E+01  1.00800000E+00  1.00800000E+00  1.60000000E+01
  1.00800000E+00  1.00800000E+00  1.60000000E+01  1.00800000E+00  1.00800000E+00
  1.60000000E+01  1.00800000E+00  1.00800000E+00  1.60000000E+01  1.00800000E+00
  1.00800000E+00  1.60000000E+01  1.00800000E+00  1.00800000E+00  1.60000000E+01
  1.00800000E+00  1.00800000E+00  1.60000000E+01  1.00800000E+00  1.00800000E+00
  1.60000000E+01  1.00800000E+00  1.00800000E+00  1.60000000E+01  1.00800000E+00
  1.00800000E+00  1.60000000E+01  1.00800000E+00  1.00800000E+00  1.60000000E+01
  1.00800000E+00  1.00800000E+00  1.60000000E+01  1.00800000E+00  1.00800000E+00
  1.60000000E+01  1.00800000E+00  1.00800000E+00  1.60000000E+01  1.00800000E+00
  1.00800000E+00  1.60000000E+01  1.00800000E+00  1.00800000E+00  1.60000000E+01
  1.00800000E+00  1.00800000E+00  1.60000000E+01  1.00800000E+00  1.00800000E+00
  1.60000000E+01  1.00800000E+00  1.00800000E+00  1.60000000E+01  1.00800000E+00
  1.00800000E+00  1.60000000E+01  1.00800000E+00  1.00800000E+00  1.60000000E+01
  1.00800000E+00  1.00800000E+00  1.60000000E+01  1.00800000E+00  1.00800000E+00
  1.60000000E+01  1.00800000E+00  1.00800000E+00  1.60000000E+01  1.00800000E+00
  1.00800000E+00  1.60000000E+01  1.00800000E+00  1.00800000E+00  1.60000000E+01
  1.00800000E+00  1.00800000E+00  1.60000000E+01  1.00800000E+00  1.00800000E+00
  1.60000000E+01  1.00800000E+00  1.00800000E+00  1.60000000E+01  1.00800000E+00
  1.00800000E+00  1.60000000E+01  1.00800000E+00  1.00800000E+00  1.60000000E+01
  1.00800000E+00  1.00800000E+00  1.60000000E+01  1.00800000E+00  1.00800000E+00
  1.60000000E+01  1.00800000E+00  1.00800000E+00  1.60000000E+01  1.00800000E+00
  1.00800000E+00  1.60000000E+01  1.00800000E+00  1.00800000E+00  1.60000000E+01
  1.00800000E+00  1.00800000E+00  1.60000000E+01  1.00800000E+00  1.00800000E+00
  1.60000000E+01  1.00800000E+00  1.00800000E+00  1.60000000E+01  1.00800000E+00
  1.00800000E+00  1.60000000E+01  1.00800000E+00  1.00800000E+00  1.60000000E+01
  1.00800000E+00  1.00800000E+00  1.60000000E+01  1.00800000E+00  1.00800000E+00
  1.60000000E+01  1.00800000E+00  1.00800000E+00  1.60000000E+01  1.00800000E+00
  1.00800000E+00  1.60000000E+01  1.00800000E+00  1.00800000E+00  1.60000000E+01
  1.00800000E+00  1.00800000E+00  1.60000000E+01  1.00800000E+00  1.00800000E+00
  1.60000000E+01  1.00800000E+00  1.00800000E+00  1.60000000E+01  1.00800000E+00
  1.00800000E+00  1.60000000E+01  1.00800000E+00  1.00800000E+00  1.60000000E+01
  1.00800000E+00  1.00800000E+00  1.60000000E+01  1.00800000E+00  1.00800000E+00
  1.60000000E+01  1.00800000E+00  1.00800000E+00  1.60000000E+01  1.00800000E+00
  1.00800000E+00  1.60000000E+01  1.00800000E+00  1.00800000E+00  1.60000000E+01
  1.00800000E+00  1.00800000E+00  1.60000000E+01  1.00800000E+00  1.00800000E+00
  1.60000000E+01  1.00800000E+00  1.00800000E+00  1.60000000E+01  1.00800000E+00
  1.00800000E+00  1.60000000E+01  1.00800000E+00  1.00800000E+00  1.60000000E+01
  1.00800000E+00  1.00800000E+00  1.60000000E+01  1.00800000E+00  1.00800000E+00
  1.60000000E+01  1.00800000E+00  1.00800000E+00  1.60000000E+01  1.00800000E+00
  1.00800000E+00  1.60000000E+01  1.00800000E+00  1.00800000E+00  1.60000000E+01
  1.00800000E+00  1.00800000E+00  1.60000000E+01  1.00800000E+00  1.00800000E+00
  1.60000000E+01  1.00800000E+00  1.00800000E+00  1.60000000E+01  1.00800000E+00
  1.00800000E+00  1.60000000E+01  1.00800000E+00  1.00800000E+00  1.60000000E+01
  1.00800000E+00  1.00800000E+00  1.60000000E+01  1.00800000E+00  1.00800000E+00
  1.60000000E+01  1.00800000E+00  1.00800000E+00  1.60000000E+01  1.00800000E+00
  1.00800000E+00  1.60000000E+01  1.00800000E+00  1.00800000E+00  1.60000000E+01
  1.00800000E+00  1.00800000E+00  1.60000000E+01  1.00800000E+00  1.00800000E+00
  1.60000000E+01  1.00800000E+00  1.00800000E+00  1.60000000E+01  1.00800000E+00
  1.00800000E+00  1.60000000E+01  1.00800000E+00  1.00800000E+00  1.60000000E+01
  1.00800000E+00  1.00800000E+00  1.60000000E+01  1.00800000E+00  1.00800000E+00
  1.60000000E+01  1.00800000E+00  1.00800000E+00  1.60000000E+01  1.00800000E+00
  1.00800000E+00  1.60000000E+01  1.00800000E+00  1.00800000E+00  1.60000000E+01
  1.00800000E+00  1.00800000E+00  1.60000000E+01  1.00800000E+00  1.00800000E+00
  1.60000000E+01  1.00800000E+00  1.00800000E+00  1.60000000E+01  1.00800000E+00
  1.00800000E+00  1.60000000E+01  1.00800000E+00  1.00800000E+00  1.60000000E+01
  1.00800000E+00  1.00800000E+00  1.60000000E+01  1.00800000E+00  1.00800000E+00
  1.60000000E+01  1.00800000E+00  1.00800000E+00  1.60000000E+01  1.00800000E+00
  1.00800000E+00  1.60000000E+01  1.00800000E+00  1.00800000E+00  1.60000000E+01
  1.00800000E+00  1.00800000E+00  1.60000000E+01  1.00800000E+00  1.00800000E+00
  1.60000000E+01  1.00800000E+00  1.00800000E+00  1.60000000E+01  1.00800000E+00
  1.00800000E+00  1.60000000E+01  1.00800000E+00  1.00800000E+00  1.60000000E+01
  1.00800000E+00  1.00800000E+00  1.60000000E+01  1.00800000E+00  1.00800000E+00
  1.60000000E+01  1.00800000E+00  1.00800000E+00  1.60000000E+01  1.00800000E+00
  1.00800000E+00  1.60000000E+01  1.00800000E+00  1.00800000E+00  1.60000000E+01
  1.00800000E+00  1.00800000E+00  1.60000000E+01  1.00800000E+00  1.00800000E+00
  1.60000000E+01  1.00800000E+00  1.00800000E+00  1.60000000E+01  1.00800000E+00
  1.00800000E+00  1.60000000E+01  1.00800000E+00  1.00800000E+00  1.60000000E+01
  1.00800000E+00  1.00800000E+00  1.60000000E+01  1.00800000E+00  1.00800000E+00
  1.60000000E+01  1.00800000E+00  1.00800000E+00  1.60000000E+01  1.00800000E+00
  1.00800000E+00  1.60000000E+01  1.00800000E+00  1.00800000E+00  1.60000000E+01
  1.00800000E+00  1.00800000E+00  1.60000000E+01  1.00800000E+00  1.00800000E+00
  1.60000000E+01  1.00800000E+00  1.00800000E+00  1.60000000E+01  1.00800000E+00
  1.00800000E+00  1.60000000E+01  1.00800000E+00  1.00800000E+00  1.60000000E+01
  1.00800000E+00  1.00800000E+00  1.60000000E+01  1.00800000E+00  1.00800000E+00
  1.60000000E+01  1.00800000E+00  1.00800000E+00  1.60000000E+01  1.00800000E+00
  1.00800000E+00  1.60000000E+01  1.00800000E+00  1.00800000E+00  1.60000000E+01
  1.00800000E+00  1.00800000E+00  1.60000000E+01  1.00800000E+00  1.00800000E+00
  1.60000000E+01  1.00800000E+00  1.00800000E+00  1.60000000E+01  1.00800000E+00
  1.00800000E+00  1.60000000E+01  1.00800000E+00  1.00800000E+00  1.60000000E+01
  1.00800000E+00  1.00800000E+00  1.60000000E+01  1.00800000E+00  1.00800000E+00
  1.60000000E+01  1.00800000E+00  1.00800000E+00  1.60000000E+01  1.00800000E+00
  1.00800000E+00  1.60000000E+01  1.00800000E+00  1.00800000E+00  1.60000000E+01
  1.00800000E+00  1.00800000E+00  1.60000000E+01  1.00800000E+00  1.00800000E+00
  1.60000000E+01  1.00800000E+00  1.00800000E+00  1.60000000E+01  1.00800000E+00
  1.00800000E+00  1.60000000E+01  1.00800000E+00  1.00800000E+00  1.60000000E+01
  1.00800000E+00  1.00800000E+00  1.60000000E+01  1.00800000E+00  1.00800000E+00
  1.60000000E+01  1.00800000E+00  1.00800000E+00  1.60000000E+01  1.00800000E+00
  1.00800000E+00  1.60000000E+01  1.00800000E+00  1.00800000E+00  1.60000000E+01
  1.00800000E+00  1.00800000E+00  1.60000000E+01  1.00800000E+00  1.00800000E+00
  1.60000000E+01  1.00800000E+00  1.00800000E+00  1.60000000E+01  1.00800000E+00
  1.00800000E+00  1.60000000E+01  1.00800000E+00  1.00800000E+00  1.60000000E+01
  1.00800000E+00  1.00800000E+00  1.60000000E+01  1.00800000E+00  1.00800000E+00
  1.60000000E+01  1.00800000E+00  1.00800000E+00  1.60000000E+01  1.00800000E+00
  1.00800000E+00  1.60000000E+01  1.00800000E+00  1.00800000E+00  1.60000000E+01
  1.00800000E+00  1.00800000E+00  1.60000000E+01  1.00800000E+00  1.00800000E+00
  1.60000000E+01  1.00800000E+00  1.00800000E+00  1.60000000E+01  1.00800000E+00
  1.00800000E+00  1.60000000E+01  1.00800000E+00  1.00800000E+00  1.60000000E+01
  1.00800000E+00  1.00800000E+00  1.60000000E+01  1.00800000E+00  1.00800000E+00
  1.60000000E+01  1.00800000E+00  1.00800000E+00  1.60000000E+01  1.00800000E+00
  1.00800000E+00  1.60000000E+01  1.00800000E+00  1.00800000E+00  1.60000000E+01
  1.00800000E+00  1.00800000E+00  1.60000000E+01  1.00800000E+00  1.00800000E+00
  1.60000000E+01  1.00800000E+00  1.00800000E+00  1.60000000E+01  1.00800000E+00
  1.00800000E+00  1.60000000E+01  1.00800000E+00  1.00800000E+00  1.60000000E+01
  1.00800000E+00  1.00800000E+00  1.60000000E+01  1.00800000E+00  1.00800000E+00
  1.60000000E+01  1.00800000E+00  1.00800000E+00  1.60000000E+01  1.00800000E+00
  1.00800000E+00  1.60000000E+01  1.00800000E+00  1.00800000E+00  1.60000000E+01
  1.00800000E+00  1.00800000E+00  1.60000000E+01  1.00800000E+00  1.00800000E+00
  1.60000000E+01  1.00800000E+00  1.00800000E+00  1.60000000E+01  1.00800000E+00
  1.00800000E+00  1.60000000E+01  1.00800000E+00  1.00800000E+00  1.60000000E+01
  1.00800000E+00  1.00800000E+00  1.60000000E+01  1.00800000E+00  1.00800000E+00
  1.60000000E+01  1.00800000E+00  1.00800000E+00  1.60000000E+01  1.00800000E+00
  1.00800000E+00  1.60000000E+01  1.00800000E+00  1.00800000E+00  1.60000000E+01
  1.00800000E+00  1.00800000E+00  1.60000000E+01  1.00800000E+00  1.00800000E+00
  1.60000000E+01  1.00800000E+00  1.00800000E+00  1.60000000E+01  1.00800000E+00
  1.00800000E+00  1.60000000E+01  1.00800000E+00  1.00800000E+00  1.60000000E+01
  1.00800000E+00  1.00800000E+00  1.60000000E+01  1.00800000E+00  1.00800000E+00
  1.60000000E+01  1.00800000E+00  1.00800000E+00  1.60000000E+01  1.00800000E+00
  1.00800000E+00  1.60000000E+01  1.00800000E+00  1.00800000E+00  1.60000000E+01
  1.00800000E+00  1.00800000E+00  1.60000000E+01  1.00800000E+00  1.00800000E+00
  1.60000000E+01  1.00800000E+00  1.00800000E+00  1.60000000E+01  1.00800000E+00
  1.00800000E+00  1.60000000E+01  1.00800000E+00  1.00800000E+00  1.60000000E+01
  1.00800000E+00  1.00800000E+00  1.60000000E+01  1.00800000E+00  1.00800000E+00
  1.60000000E+01  1.00800000E+00  1.00800000E+00  1.60000000E+01  1.00800000E+00
  1.00800000E+00  1.60000000E+01  1.00800000E+00  1.00800000E+00  1.60000000E+01
  1.00800000E+00  1.00800000E+00  1.60000000E+01  1.00800000E+00  1.00800000E+00
  1.60000000E+01  1.00800000E+00  1.00800000E+00  1.60000000E+01  1.00800000E+00
  1.00800000E+00  1.60000000E+01  1.00800000E+00  1.00800000E+00  1.60000000E+01
  1.00800000E+00  1.00800000E+00  1.60000000E+01  1.00800000E+00  1.00800000E+00
  1.60000000E+01  1.00800000E+00  1.00800000E+00  1.60000000E+01  1.00800000E+00
  1.00800000E+00  1.60000000E+01  1.00800000E+00  1.00800000E+00  1.60000000E+01
  1.00800000E+00  1.00800000E+00  1.60000000E+01  1.00800000E+00  1.00800000E+00
  1.60000000E+01  1.00800000E+00  1.00800000E+00  1.60000000E+01  1.00800000E+00
  1.00800000E+00  1.60000000E+01  1.00800000E+00  1.00800000E+00  1.60000000E+01
  1.00800000E+00  1.00800000E+00  1.60000000E+01  1.00800000E+00  1.00800000E+00
  1.60000000E+01  1.00800000E+00  1.00800000E+00  1.60000000E+01  1.00800000E+00
  1.00800000E+00  1.60000000E+01  1.00800000E+00  1.00800000E+00  1.60000000E+01
  1.00800000E+00  1.00800000E+00  1.60000000E+01  1.00800000E+00  1.00800000E+00
  1.60000000E+01  1.00800000E+00  1.00800000E+00  1.60000000E+01  1.00800000E+00
  1.00800000E+00  1.60000000E+01  1.00800000E+00  1.00800000E+00  1.60000000E+01
  1.00800000E+00  1.00800000E+00  1.60000000E+01  1.00800000E+00  1.00800000E+00
  1.60000000E+01  1.00800000E+00  1.00800000E+00  1.60000000E+01  1.00800000E+00
  1.00800000E+00  1.60000000E+01  1.00800000E+00  1.00800000E+00  1.60000000E+01
  1.00800000E+00  1.00800000E+00  1.60000000E+01  1.00800000E+00  1.00800000E+00
  1.60000000E+01  1.00800000E+00  1.00800000E+00  1.60000000E+01  1.00800000E+00
  1.00800000E+00  1.60000000E+01  1.00800000E+00  1.00800000E+00  1.60000000E+01
  1.00800000E+00  1.00800000E+00  1.60000000E+01  1.00800000E+00  1.00800000E+00
  1.60000000E+01  1.00800000E+00  1.00800000E+00  1.60000000E+01  1.00800000E+00
  1.00800000E+00  1.60000000E+01  1.00800000E+00  1.00800000E+00  1.60000000E+01
  1.00800000E+00  1.00800000E+00  1.60000000E+01  1.00800000E+00  1.00800000E+00
  1.60000000E+01  1.00800000E+00  1.00800000E+00  1.60000000E+01  1.00800000E+00
  1.00800000E+00  1.60000000E+01  1.00800000E+00  1.00800000E+00  1.60000000E+01
  1.00800000E+00  1.00800000E+00  1.60000000E+01  1.00800000E+00  1.00800000E+00
  1.60000000E+01  1.00800000E+00  1.00800000E+00  1.60000000E+01  1.00800000E+00
  1.00800000E+00  1.60000000E+01  1.00800000E+00  1.00800000E+00  1.60000000E+01
  1.00800000E+00  1.00800000E+00  1.60000000E+01  1.00800000E+00  1.00800000E+00
  1.60000000E+01  1.00800000E+00  1.00800000E+00  1.60000000E+01  1.00800000E+00
  1.00800000E+00  1.60000000E+01  1.00800000E+00  1.00800000E+00  1.60000000E+01
  1.00800000E+00  1.00800000E+00  1.60000000E+01  1.00800000E+00  1.00800000E+00
  1.60000000E+01  1.00800000E+00  1.00800000E+00  1.60000000E+01  1.00800000E+00
  1.00800000E+00  1.60000000E+01  1.00800000E+00  1.00800000E+00  1.60000000E+01
  1.00800000E+00  1.00800000E+00  1.60000000E+01  1.00800000E+00  1.00800000E+00
  1.60000000E+01  1.00800000E+00  1.00800000E+00  1.60000000E+01  1.00800000E+00
  1.00800000E+00  1.60000000E+01  1.00800000E+00  1.00800000E+00  1.60000000E+01
  1.00800000E+00  1.00800000E+00  1.60000000E+01  1.00800000E+00  1.00800000E+00
  1.60000000E+01  1.00800000E+00  1.00800000E+00  1.60000000E+01  1.00800000E+00
  1.00800000E+00  1.60000000E+01  1.00800000E+00  1.00800000E+00  1.60000000E+01
  1.00800000E+00  1.00800000E+00  1.60000000E+01  1.00800000E+00  1.00800000E+00
  1.60000000E+01  1.00800000E+00  1.00800000E+00  1.60000000E+01  1.00800000E+00
  1.00800000E+00  1.60000000E+01  1.00800000E+00  1.00800000E+00  1.60000000E+01
  1.00800000E+00  1.00800000E+00  1.60000000E+01  1.00800000E+00  1.00800000E+00
  1.60000000E+01  1.00800000E+00  1.00800000E+00  1.60000000E+01  1.00800000E+00
  1.00800000E+00  1.60000000E+01  1.00800000E+00  1.00800000E+00  1.60000000E+01
  1.00800000E+00  1.00800000E+00  1.60000000E+01  1.00800000E+00  1.00800000E+00
  1.60000000E+01  1.00800000E+00  1.00800000E+00  1.60000000E+01  1.00800000E+00
  1.00800000E+00  1.60000000E+01  1.00800000E+00  1.00800000E+00  1.60000000E+01
  1.00800000E+00  1.00800000E+00  1.60000000E+01  1.00800000E+00  1.00800000E+00
  1.60000000E+01  1.00800000E+00  1.00800000E+00  1.60000000E+01  1.00800000E+00
  1.00800000E+00  1.60000000E+01  1.00800000E+00  1.00800000E+00  1.60000000E+01
  1.00800000E+00  1.00800000E+00  1.60000000E+01  1.00800000E+00  1.00800000E+00
  1.60000000E+01  1.00800000E+00  1.00800000E+00  1.60000000E+01  1.00800000E+00
  1.00800000E+00  1.60000000E+01  1.00800000E+00  1.00800000E+00  1.60000000E+01
  1.00800000E+00  1.00800000E+00  1.60000000E+01  1.00800000E+00  1.00800000E+00
  1.60000000E+01  1.00800000E+00  1.00800000E+00  1.60000000E+01  1.00800000E+00
  1.00800000E+00  1.60000000E+01  1.00800000E+00  1.00800000E+00  1.60000000E+01
  1.00800000E+00  1.00800000E+00  1.60000000E+01  1.00800000E+00  1.00800000E+00
  1.60000000E+01  1.00800000E+00  1.00800000E+00  1.60000000E+01  1.00800000E+00
  1.00800000E+00  1.60000000E+01  1.00800000E+00  1.00800000E+00  1.60000000E+01
  1.00800000E+00  1.00800000E+00  1.60000000E+01  1.00800000E+00  1.00800000E+00
  1.60000000E+01  1.00800000E+00  1.00800000E+00  1.60000000E+01  1.00800000E+00
  1.00800000E+00  1.60000000E+01  1.00800000E+00  1.00800000E+00  1.60000000E+01
  1.00800000E+00  1.00800000E+00  1.60000000E+01  1.00800000E+00  1.00800000E+00
  1.60000000E+01  1.00800000E+00  1.00800000E+00  1.60000000E+01  1.00800000E+00
  1.00800000E+00  1.60000000E+01  1.00800000E+00  1.00800000E+00  1.60000000E+01
  1.00800000E+00  1.00800000E+00  1.60000000E+01  1.00800000E+00  1.00800000E+00
  1.60000000E+01  1.00800000E+00  1.00800000E+00  1.60000000E+01  1.00800000E+00
  1.00800000E+00  1.60000000E+01  1.00800000E+00  1.00800000E+00  1.60000000E+01
  1.00800000E+00  1.00800000E+00  1.60000000E+01  1.00800000E+00  1.00800000E+00
  1.60000000E+01  1.00800000E+00  1.00800000E+00  1.60000000E+01  1.00800000E+00
  1.00800000E+00  1.60000000E+01  1.00800000E+00  1.00800000E+00  1.60000000E+01
  1.00800000E+00  1.00800000E+00  1.60000000E+01  1.00800000E+00  1.00800000E+00
  1.60000000E+01  1.00800000E+00  1.00800000E+00  1.60000000E+01  1.00800000E+00
  1.00800000E+00  1.60000000E+01  1.00800000E+00  1.00800000E+00  1.60000000E+01
  1.00800000E+00  1.00800000E+00  1.60000000E+01  1.00800000E+00  1.00800000E+00
  1.60000000E+01  1.00800000E+00  1.00800000E+00  1.60000000E+01  1.00800000E+00
  1.00800000E+00  1.60000000E+01  1.00800000E+00  1.00800000E+00  1.60000000E+01
  1.00800000E+00  1.00800000E+00  1.60000000E+01  1.00800000E+00  1.00800000E+00
  1.60000000E+01  1.00800000E+00  1.00800000E+00  1.60000000E+01  1.00800000E+00
  1.00800000E+00  1.60000000E+01  1.00800000E+00  1.00800000E+00  1.60000000E+01
  1.00800000E+00  1.00800000E+00  1.60000000E+01  1.00800000E+00  1.00800000E+00
  1.60000000E+01  1.00800000E+00  1.00800000E+00  1.60000000E+01  1.00800000E+00
  1.00800000E+00  1.60000000E+01  1.00800000E+00  1.00800000E+00  1.60000000E+01
  1.00800000E+00  1.00800000E+00  1.60000000E+01  1.00800000E+00  1.00800000E+00
  1.60000000E+01  1.00800000E+00  1.00800000E+00  1.60000000E+01  1.00800000E+00
  1.00800000E+00  1.60000000E+01  1.00800000E+00  1.00800000E+00  1.60000000E+01
  1.00800000E+00  1.00800000E+00  1.60000000E+01  1.00800000E+00  1.00800000E+00
  1.60000000E+01  1.00800000E+00  1.00800000E+00  1.60000000E+01  1.00800000E+00
  1.00800000E+00  1.60000000E+01  1.00800000E+00  1.00800000E+00  1.60000000E+01
  1.00800000E+00  1.00800000E+00  1.60000000E+01  1.00800000E+00  1.00800000E+00
  1.60000000E+01  1.00800000E+00  1.00800000E+00  1.60000000E+01  1.00800000E+00
  1.00800000E+00  1.60000000E+01  1.00800000E+00  1.00800000E+00  1.60000000E+01
  1.00800000E+00  1.00800000E+00  1.60000000E+01  1.00800000E+00  1.00800000E+00
  1.60000000E+01  1.00800000E+00  1.00800000E+00  1.60000000E+01  1.00800000E+00
  1.00800000E+00  1.60000000E+01  1.00800000E+00  1.00800000E+00  1.60000000E+01
  1.00800000E+00  1.00800000E+00  1.60000000E+01  1.00800000E+00  1.00800000E+00
  1.60000000E+01  1.00800000E+00  1.00800000E+00  1.60000000E+01  1.00800000E+00
  1.00800000E+00  1.60000000E+01  1.00800000E+00  1.00800000E+00  1.60000000E+01
  1.00800000E+00  1.00800000E+00  1.60000000E+01  1.00800000E+00  1.00800000E+00
  1.60000000E+01  1.00800000E+00  1.00800000E+00  1.60000000E+01  1.00800000E+00
  1.00800000E+00  1.60000000E+01  1.00800000E+00  1.00800000E+00  1.60000000E+01
  1.00800000E+00  1.00800000E+00  1.60000000E+01  1.00800000E+00  1.00800000E+00
  1.60000000E+01  1.00800000E+00  1.00800000E+00  1.60000000E+01  1.00800000E+00
  1.00800000E+00  1.60000000E+01  1.00800000E+00  1.00800000E+00  1.60000000E+01
  1.00800000E+00  1.00800000E+00  1.60000000E+01  1.00800000E+00  1.00800000E+00
  1.60000000E+01  1.00800000E+00  1.00800000E+00  1.60000000E+01  1.00800000E+00
  1.00800000E+00  1.60000000E+01  1.00800000E+00  1.00800000E+00  1.60000000E+01
  1.00800000E+00  1.00800000E+00  1.60000000E+01  1.00800000E+00  1.00800000E+00
  1.60000000E+01  1.00800000E+00  1.00800000E+00  1.60000000E+01  1.00800000E+00
  1.00800000E+00  1.60000000E+01  1.00800000E+00  1.00800000E+00  1.60000000E+01
  1.00800000E+00  1.00800000E+00  1.60000000E+01  1.00800000E+00  1.00800000E+00
  1.60000000E+01  1.00800000E+00  1.00800000E+00  1.60000000E+01  1.00800000E+00
  1.00800000E+00  1.60000000E+01  1.00800000E+00  1.00800000E+00  1.60000000E+01
  1.00800000E+00  1.00800000E+00  1.60000000E+01  1.00800000E+00  1.00800000E+00
  1.60000000E+01  1.00800000E+00  1.00800000E+00  1.60000000E+01  1.00800000E+00
  1.00800000E+00  1.60000000E+01  1.00800000E+00  1.00800000E+00  1.60000000E+01
  1.00800000E+00  1.00800000E+00  1.60000000E+01  1.00800000E+00  1.00800000E+00
  1.60000000E+01  1.00800000E+00  1.00800000E+00  1.60000000E+01  1.00800000E+00
  1.00800000E+00  1.60000000E+01  1.00800000E+00  1.00800000E+00  1.60000000E+01
  1.00800000E+00  1.00800000E+00  1.60000000E+01  1.00800000E+00  1.00800000E+00
  1.60000000E+01  1.00800000E+00  1.00800000E+00  1.60000000E+01  1.00800000E+00
  1.00800000E+00  1.60000000E+01  1.00800000E+00  1.00800000E+00  1.60000000E+01
  1.00800000E+00  1.00800000E+00  1.60000000E+01  1.00800000E+00  1.00800000E+00
  1.60000000E+01  1.00800000E+00  1.00800000E+00  1.60000000E+01  1.00800000E+00
  1.00800000E+00  1.60000000E+01  1.00800000E+00  1.00800000E+00  1.60000000E+01
  1.00800000E+00  1.00800000E+00  1.60000000E+01  1.00800000E+00  1.00800000E+00
  1.60000000E+01  1.00800000E+00  1.00800000E+00  1.60000000E+01  1.00800000E+00
  1.00800000E+00  1.60000000E+01  1.00800000E+00  1.00800000E+00  1.60000000E+01
  1.00800000E+00  1.00800000E+00  1.60000000E+01  1.00800000E+00  1.00800000E+00
  1.60000000E+01  1.00800000E+00  1.00800000E+00  1.60000000E+01  1.00800000E+00
  1.00800000E+00  1.60000000E+01  1.00800000E+00  1.00800000E+00  1.60000000E+01
  1.00800000E+00  1.00800000E+00  1.60000000E+01  1.00800000E+00  1.00800000E+00
  1.60000000E+01  1.00800000E+00  1.00800000E+00  1.60000000E+01  1.00800000E+00
  1.00800000E+00  1.60000000E+01  1.00800000E+00  1.00800000E+00  1.60000000E+01
  1.00800000E+00  1.00800000E+00  1.60000000E+01  1.00800000E+00  1.00800000E+00
  1.60000000E+01  1.00800000E+00  1.00800000E+00  1.60000000E+01  1.00800000E+00
  1.00800000E+00  1.60000000E+01  1.00800000E+00  1.00800000E+00  1.60000000E+01
  1.00800000E+00  1.00800000E+00  1.60000000E+01  1.00800000E+00  1.00800000E+00
  1.60000000E+01  1.00800000E+00  1.00800000E+00  1.60000000E+01  1.00800000E+00
  1.00800000E+00  1.60000000E+01  1.00800000E+00  1.00800000E+00  1.60000000E+01
  1.00800000E+00  1.00800000E+00  1.60000000E+01  1.00800000E+00  1.00800000E+00
  1.60000000E+01  1.00800000E+00  1.00800000E+00  1.60000000E+01  1.00800000E+00
  1.00800000E+00  1.60000000E+01  1.00800000E+00  1.00800000E+00  1.60000000E+01
  1.00800000E+00  1.00800000E+00  1.60000000E+01  1.00800000E+00  1.00800000E+00
  1.60000000E+01  1.00800000E+00  1.00800000E+00  1.60000000E+01  1.00800000E+00
  1.00800000E+00  1.60000000E+01  1.00800000E+00  1.00800000E+00  1.60000000E+01
  1.00800000E+00  1.00800000E+00  1.60000000E+01  1.00800000E+00  1.00800000E+00
  1.60000000E+01  1.00800000E+00  1.00800000E+00  1.60000000E+01  1.00800000E+00
  1.00800000E+00  1.60000000E+01  1.00800000E+00  1.00800000E+00  1.60000000E+01
  1.00800000E+00  1.00800000E+00  1.60000000E+01  1.00800000E+00  1.00800000E+00
  1.60000000E+01  1.00800000E+00  1.00800000E+00  1.60000000E+01  1.00800000E+00
  1.00800000E+00  1.60000000E+01  1.00800000E+00  1.00800000E+00  1.60000000E+01
  1.00800000E+00  1.00800000E+00  1.60000000E+01  1.00800000E+00  1.00800000E+00
  1.60000000E+01  1.00800000E+00  1.00800000E+00  1.60000000E+01  1.00800000E+00
  1.00800000E+00  1.60000000E+01  1.00800000E+00  1.00800000E+00  1.60000000E+01
  1.00800000E+00  1.00800000E+00  1.60000000E+01  1.00800000E+00  1.00800000E+00
  1.60000000E+01  1.00800000E+00  1.00800000E+00  1.60000000E+01  1.00800000E+00
  1.00800000E+00  1.60000000E+01  1.00800000E+00  1.00800000E+00  1.60000000E+01
  1.00800000E+00  1.00800000E+00  1.60000000E+01  1.00800000E+00  1.00800000E+00
  1.60000000E+01  1.00800000E+00  1.00800000E+00  1.60000000E+01  1.00800000E+00
  1.00800000E+00  1.60000000E+01  1.00800000E+00  1.00800000E+00  1.60000000E+01
  1.00800000E+00  1.00800000E+00  1.60000000E+01  1.00800000E+00  1.00800000E+00
  1.60000000E+01  1.00800000E+00  1.00800000E+00  1.60000000E+01  1.00800000E+00
  1.00800000E+00  1.60000000E+01  1.00800000E+00  1.00800000E+00  1.60000000E+01
  1.00800000E+00  1.00800000E+00  1.60000000E+01  1.00800000E+00  1.00800000E+00
  1.60000000E+01  1.00800000E+00  1.00800000E+00  1.60000000E+01  1.00800000E+00
  1.00800000E+00  1.60000000E+01  1.00800000E+00  1.00800000E+00  1.60000000E+01
  1.00800000E+00  1.00800000E+00  1.60000000E+01  1.00800000E+00  1.00800000E+00
  1.60000000E+01  1.00800000E+00  1.00800000E+00  1.60000000E+01  1.00800000E+00
  1.00800000E+00  1.60000000E+01  1.00800000E+00  1.00800000E+00  1.60000000E+01
  1.00800000E+00  1.00800000E+00  1.60000000E+01  1.00800000E+00  1.00800000E+00
  1.60000000E+01  1.00800000E+00  1.00800000E+00  1.60000000E+01  1.00800000E+00
  1.00800000E+00  1.60000000E+01  1.00800000E+00  1.00800000E+00  1.60000000E+01
  1.00800000E+00  1.00800000E+00  1.60000000E+01  1.00800000E+00  1.00800000E+00
  1.60000000E+01  1.00800000E+00  1.00800000E+00  1.60000000E+01  1.00800000E+00
  1.00800000E+00  1.60000000E+01  1.00800000E+00  1.00800000E+00  1.60000000E+01
  1.00800000E+00  1.00800000E+00  1.60000000E+01  1.00800000E+00  1.00800000E+00
  1.60000000E+01  1.00800000E+00  1.00800000E+00  1.60000000E+01  1.00800000E+00
  1.00800000E+00  1.60000000E+01  1.00800000E+00  1.00800000E+00  1.60000000E+01
  1.00800000E+00  1.00800000E+00  1.60000000E+01  1.00800000E+00  1.00800000E+00
  1.60000000E+01  1.00800000E+00  1.00800000E+00  1.60000000E+01  1.00800000E+00
  1.00800000E+00  1.60000000E+01  1.00800000E+00  1.00800000E+00  1.60000000E+01
  1.00800000E+00  1.00800000E+00  1.60000000E+01  1.00800000E+00  1.00800000E+00
  1.60000000E+01  1.00800000E+00  1.00800000E+00  1.60000000E+01  1.00800000E+00
  1.00800000E+00  1.60000000E+01  1.00800000E+00  1.00800000E+00  1.60000000E+01
  1.00800000E+00  1.00800000E+00  1.60000000E+01  1.00800000E+00  1.00800000E+00
  1.60000000E+01  1.00800000E+00  1.00800000E+00  1.60000000E+01  1.00800000E+00
  1.00800000E+00  1.60000000E+01  1.00800000E+00  1.00800000E+00  1.60000000E+01
  1.00800000E+00  1.00800000E+00  1.60000000E+01  1.00800000E+00  1.00800000E+00
  1.60000000E+01  1.00800000E+00  1.00800000E+00  1.60000000E+01  1.00800000E+00
  1.00800000E+00  1.60000000E+01  1.00800000E+00  1.00800000E+00  1.60000000E+01
  1.00800000E+00  1.00800000E+00  1.60000000E+01  1.00800000E+00  1.00800000E+00
  1.60000000E+01  1.00800000E+00  1.00800000E+00  1.60000000E+01  1.00800000E+00
  1.00800000E+00  1.60000000E+01  1.00800000E+00  1.00800000E+00  1.60000000E+01
  1.00800000E+00  1.00800000E+00  1.60000000E+01  1.00800000E+00  1.00800000E+00
  1.60000000E+01  1.00800000E+00  1.00800000E+00  1.60000000E+01  1.00800000E+00
  1.00800000E+00  1.60000000E+01  1.00800000E+00  1.00800000E+00  1.60000000E+01
  1.00800000E+00  1.00800000E+00  1.60000000E+01  1.00800000E+00  1.00800000E+00
  1.60000000E+01  1.00800000E+00  1.00800000E+00  1.60000000E+01  1.00800000E+00
  1.00800000E+00  1.60000000E+01  1.00800000E+00  1.00800000E+00  1.60000000E+01
  1.00800000E+00  1.00800000E+00  1.60000000E+01  1.00800000E+00  1.00800000E+00
  1.60000000E+01  1.00800000E+00  1.00800000E+00  1.60000000E+01  1.00800000E+00
  1.00800000E+00  1.60000000E+01  1.00800000E+00  1.00800000E+00  1.60000000E+01
  1.00800000E+00  1.00800000E+00  1.60000000E+01  1.00800000E+00  1.00800000E+00
  1.60000000E+01  1.00800000E+00  1.00800000E+00  1.60000000E+01  1.00800000E+00
  1.00800000E+00  1.60000000E+01  1.00800000E+00  1.00800000E+00  1.60000000E+01
  1.00800000E+00  1.00800000E+00  1.60000000E+01  1.00800000E+00  1.00800000E+00
  1.60000000E+01  1.00800000E+00  1.00800000E+00  1.60000000E+01  1.00800000E+00
  1.00800000E+00  1.60000000E+01  1.00800000E+00  1.00800000E+00  1.60000000E+01
  1.00800000E+00  1.00800000E+00  1.60000000E+01  1.00800000E+00  1.00800000E+00
  1.60000000E+01  1.00800000E+00  1.00800000E+00  1.60000000E+01  1.00800000E+00
  1.00800000E+00  1.60000000E+01  1.00800000E+00  1.00800000E+00  1.60000000E+01
  1.00800000E+00  1.00800000E+00  1.60000000E+01  1.00800000E+00  1.00800000E+00
  1.60000000E+01  1.00800000E+00  1.00800000E+00  1.60000000E+01  1.00800000E+00
  1.00800000E+00  1.60000000E+01  1.00800000E+00  1.00800000E+00  1.60000000E+01
  1.00800000E+00  1.00800000E+00  1.60000000E+01  1.00800000E+00  1.00800000E+00
  1.60000000E+01  1.00800000E+00  1.00800000E+00  1.60000000E+01  1.00800000E+00
  1.00800000E+00  1.60000000E+01  1.00800000E+00  1.00800000E+00  1.60000000E+01
  1.00800000E+00  1.00800000E+00  1.60000000E+01  1.00800000E+00  1.00800000E+00
  1.60000000E+01  1.00800000E+00  1.00800000E+00  1.60000000E+01  1.00800000E+00
  1.00800000E+00  1.60000000E+01  1.00800000E+00  1.00800000E+00  1.60000000E+01
  1.00800000E+00  1.00800000E+00  1.60000000E+01  1.00800000E+00  1.00800000E+00
  1.60000000E+01  1.00800000E+00  1.00800000E+00  1.60000000E+01  1.00800000E+00
  1.00800000E+00  1.60000000E+01  1.00800000E+00  1.00800000E+00  1.60000000E+01
  1.00800000E+00  1.00800000E+00  1.60000000E+01  1.00800000E+00  1.00800000E+00
  1.60000000E+01  1.00800000E+00  1.00800000E+00  1.60000000E+01  1.00800000E+00
  1.00800000E+00  1.60000000E+01  1.00800000E+00  1.00800000E+00  1.60000000E+01
  1.00800000E+00  1.00800000E+00  1.60000000E+01  1.00800000E+00  1.00800000E+00
  1.60000000E+01  1.00800000E+00  1.00800000E+00  1.60000000E+01  1.00800000E+00
  1.00800000E+00  1.60000000E+01  1.00800000E+00  1.00800000E+00  1.60000000E+01
  1.00800000E+00  1.00800000E+00  1.60000000E+01  1.00800000E+00  1.00800000E+00
  1.60000000E+01  1.00800000E+00  1.00800000E+00  1.60000000E+01  1.00800000E+00
  1.00800000E+00  1.60000000E+01  1.00800000E+00  1.00800000E+00  1.60000000E+01
  1.00800000E+00  1.00800000E+00  1.60000000E+01  1.00800000E+00  1.00800000E+00
  1.60000000E+01  1.00800000E+00  1.00800000E+00  1.60000000E+01  1.00800000E+00
  1.00800000E+00  1.60000000E+01  1.00800000E+00  1.00800000E+00  1.60000000E+01
  1.00800000E+00  1.00800000E+00  1.60000000E+01  1.00800000E+00  1.00800000E+00
  1.60000000E+01  1.00800000E+00  1.00800000E+00  1.60000000E+01  1.00800000E+00
  1.00800000E+00  1.60000000E+01  1.00800000E+00  1.00800000E+00  1.60000000E+01
  1.00800000E+00  1.00800000E+00  1.60000000E+01  1.00800000E+00  1.00800000E+00
  1.60000000E+01  1.00800000E+00  1.00800000E+00  1.60000000E+01  1.00800000E+00
  1.00800000E+00  1.60000000E+01  1.00800000E+00  1.00800000E+00  1.60000000E+01
  1.00800000E+00  1.00800000E+00  1.60000000E+01  1.00800000E+00  1.00800000E+00
  1.60000000E+01  1.00800000E+00  1.00800000E+00  1.60000000E+01  1.00800000E+00
  1.00800000E+00  1.60000000E+01  1.00800000E+00  1.00800000E+00  1.60000000E+01
  1.00800000E+00  1.00800000E+00  1.60000000E+01  1.00800000E+00  1.00800000E+00
  1.60000000E+01  1.00800000E+00  1.00800000E+00  1.60000000E+01  1.00800000E+00
  1.00800000E+00  1.60000000E+01  1.00800000E+00  1.00800000E+00  1.60000000E+01
  1.00800000E+00  1.00800000E+00  1.60000000E+01  1.00800000E+00  1.00800000E+00
  1.60000000E+01  1.00800000E+00  1.00800000E+00  1.60000000E+01  1.00800000E+00
  1.00800000E+00  1.60000000E+01  1.00800000E+00  1.00800000E+00  1.60000000E+01
  1.00800000E+00  1.00800000E+00  1.60000000E+01  1.00800000E+00  1.00800000E+00
  1.60000000E+01  1.00800000E+00  1.00800000E+00  1.60000000E+01  1.00800000E+00
  1.00800000E+00  1.60000000E+01  1.00800000E+00  1.00800000E+00  1.60000000E+01
  1.00800000E+00  1.00800000E+00  1.60000000E+01  1.00800000E+00  1.00800000E+00
  1.60000000E+01  1.00800000E+00  1.00800000E+00  1.60000000E+01  1.00800000E+00
  1.00800000E+00  1.60000000E+01  1.00800000E+00  1.00800000E+00  1.60000000E+01
  1.00800000E+00  1.00800000E+00  1.60000000E+01  1.00800000E+00  1.00800000E+00
  1.60000000E+01  1.00800000E+00  1.00800000E+00  1.60000000E+01  1.00800000E+00
  1.00800000E+00  1.60000000E+01  1.00800000E+00  1.00800000E+00  1.60000000E+01
  1.00800000E+00  1.00800000E+00  1.60000000E+01  1.00800000E+00  1.00800000E+00
  1.60000000E+01  1.00800000E+00  1.00800000E+00  1.60000000E+01  1.00800000E+00
  1.00800000E+00  1.60000000E+01  1.00800000E+00  1.00800000E+00  1.60000000E+01
  1.00800000E+00  1.00800000E+00  1.60000000E+01  1.00800000E+00  1.00800000E+00
  1.60000000E+01  1.00800000E+00  1.00800000E+00  1.60000000E+01  1.00800000E+00
  1.00800000E+00  1.60000000E+01  1.00800000E+00  1.00800000E+00  1.60000000E+01
  1.00800000E+00  1.00800000E+00  1.60000000E+01  1.00800000E+00  1.00800000E+00
  1.60000000E+01  1.00800000E+00  1.00800000E+00  1.60000000E+01  1.00800000E+00
  1.00800000E+00  1.60000000E+01  1.00800000E+00  1.00800000E+00  1.60000000E+01
  1.00800000E+00  1.00800000E+00  1.60000000E+01  1.00800000E+00  1.00800000E+00
  1.60000000E+01  1.00800000E+00  1.00800000E+00  1.60000000E+01  1.00800000E+00
  1.00800000E+00  1.60000000E+01  1.00800000E+00  1.00800000E+00  1.60000000E+01
  1.00800000E+00  1.00800000E+00  1.60000000E+01  1.00800000E+00  1.00800000E+00
  1.60000000E+01  1.00800000E+00  1.00800000E+00  1.60000000E+01  1.00800000E+00
  1.00800000E+00  1.60000000E+01  1.00800000E+00  1.00800000E+00  1.60000000E+01
  1.00800000E+00  1.00800000E+00  1.60000000E+01  1.00800000E+00  1.00800000E+00
  1.60000000E+01  1.00800000E+00  1.00800000E+00  1.60000000E+01  1.00800000E+00
  1.00800000E+00  1.60000000E+01  1.00800000E+00  1.00800000E+00  1.60000000E+01
  1.00800000E+00  1.00800000E+00  1.60000000E+01  1.00800000E+00  1.00800000E+00
  1.60000000E+01  1.00800000E+00  1.00800000E+00  1.60000000E+01  1.00800000E+00
  1.00800000E+00  1.60000000E+01  1.00800000E+00  1.00800000E+00  1.60000000E+01
  1.00800000E+00  1.00800000E+00  1.60000000E+01  1.00800000E+00  1.00800000E+00
  1.60000000E+01  1.00800000E+00  1.00800000E+00  1.60000000E+01  1.00800000E+00
  1.00800000E+00  1.60000000E+01  1.00800000E+00  1.00800000E+00  1.60000000E+01
  1.00800000E+00  1.00800000E+00  1.60000000E+01  1.00800000E+00  1.00800000E+00
  1.60000000E+01  1.00800000E+00  1.00800000E+00  1.60000000E+01  1.00800000E+00
  1.00800000E+00  1.60000000E+01  1.00800000E+00  1.00800000E+00  1.60000000E+01
  1.00800000E+00  1.00800000E+00  1.60000000E+01  1.00800000E+00  1.00800000E+00
  1.60000000E+01  1.00800000E+00  1.00800000E+00  1.60000000E+01  1.00800000E+00
  1.00800000E+00  1.60000000E+01  1.00800000E+00  1.00800000E+00  1.60000000E+01
  1.00800000E+00  1.00800000E+00  1.60000000E+01  1.00800000E+00  1.00800000E+00
  1.60000000E+01  1.00800000E+00  1.00800000E+00  1.60000000E+01  1.00800000E+00
  1.00800000E+00  1.60000000E+01  1.00800000E+00  1.00800000E+00  1.60000000E+01
  1.00800000E+00  1.00800000E+00  1.60000000E+01  1.00800000E+00  1.00800000E+00
  1.60000000E+01  1.00800000E+00  1.00800000E+00  1.60000000E+01  1.00800000E+00
  1.00800000E+00  1.60000000E+01  1.00800000E+00  1.00800000E+00  1.60000000E+01
  1.00800000E+00  1.00800000E+00  1.60000000E+01  1.00800000E+00  1.00800000E+00
  1.60000000E+01  1.00800000E+00  1.00800000E+00  1.60000000E+01  1.00800000E+00
  1.00800000E+00  1.60000000E+01  1.00800000E+00  1.00800000E+00  1.60000000E+01
  1.00800000E+00  1.00800000E+00  1.60000000E+01  1.00800000E+00  1.00800000E+00
  1.60000000E+01  1.00800000E+00  1.00800000E+00  1.60000000E+01  1.00800000E+00
  1.00800000E+00  1.60000000E+01  1.00800000E+00  1.00800000E+00  1.60000000E+01
  1.00800000E+00  1.00800000E+00  1.60000000E+01  1.00800000E+00  1.00800000E+00
  1.60000000E+01  1.00800000E+00  1.00800000E+00  1.60000000E+01  1.00800000E+00
  1.00800000E+00  1.60000000E+01  1.00800000E+00  1.00800000E+00  1.60000000E+01
  1.00800000E+00  1.00800000E+00  1.60000000E+01  1.00800000E+00  1.00800000E+00
  1.60000000E+01  1.00800000E+00  1.00800000E+00  1.60000000E+01  1.00800000E+00
  1.00800000E+00  1.60000000E+01  1.00800000E+00  1.00800000E+00  1.60000000E+01
  1.00800000E+00  1.00800000E+00  1.60000000E+01  1.00800000E+00  1.00800000E+00
  1.60000000E+01  1.00800000E+00  1.00800000E+00  1.60000000E+01  1.00800000E+00
  1.00800000E+00  1.60000000E+01  1.00800000E+00  1.00800000E+00  1.60000000E+01
  1.00800000E+00  1.00800000E+00  1.60000000E+01  1.00800000E+00  1.00800000E+00
  1.60000000E+01  1.00800000E+00  1.00800000E+00  1.60000000E+01  1.00800000E+00
  1.00800000E+00  1.60000000E+01  1.00800000E+00  1.00800000E+00  1.60000000E+01
  1.00800000E+00  1.00800000E+00  1.60000000E+01  1.00800000E+00  1.00800000E+00
  1.60000000E+01  1.00800000E+00  1.00800000E+00  1.60000000E+01  1.00800000E+00
  1.00800000E+00  1.60000000E+01  1.00800000E+00  1.00800000E+00  1.60000000E+01
  1.00800000E+00  1.00800000E+00  1.60000000E+01  1.00800000E+00  1.00800000E+00
  1.60000000E+01  1.00800000E+00  1.00800000E+00  1.60000000E+01  1.00800000E+00
  1.00800000E+00  1.60000000E+01  1.00800000E+00  1.00800000E+00  1.60000000E+01
  1.00800000E+00  1.00800000E+00  1.60000000E+01  1.00800000E+00  1.00800000E+00
  1.60000000E+01  1.00800000E+00  1.00800000E+00  1.60000000E+01  1.00800000E+00
  1.00800000E+00  1.60000000E+01  1.00800000E+00  1.00800000E+00  1.60000000E+01
  1.00800000E+00  1.00800000E+00  1.60000000E+01  1.00800000E+00  1.00800000E+00
  1.60000000E+01  1.00800000E+00  1.00800000E+00  1.60000000E+01  1.00800000E+00
  1.00800000E+00  1.60000000E+01  1.00800000E+00  1.00800000E+00  1.60000000E+01
  1.00800000E+00  1.00800000E+00  1.60000000E+01  1.00800000E+00  1.00800000E+00
  1.60000000E+01  1.00800000E+00  1.00800000E+00  1.60000000E+01  1.00800000E+00
  1.00800000E+00  1.60000000E+01  1.00800000E+00  1.00800000E+00  1.60000000E+01
  1.00800000E+00  1.00800000E+00  1.60000000E+01  1.00800000E+00  1.00800000E+00
  1.60000000E+01  1.00800000E+00  1.00800000E+00  1.60000000E+01  1.00800000E+00
  1.00800000E+00  1.60000000E+01  1.00800000E+00  1.00800000E+00  1.60000000E+01
  1.00800000E+00  1.00800000E+00  1.60000000E+01  1.00800000E+00  1.00800000E+00
  1.60000000E+01  1.00800000E+00  1.00800000E+00  1.60000000E+01  1.00800000E+00
  1.00800000E+00  1.60000000E+01  1.00800000E+00  1.00800000E+00  1.60000000E+01
  1.00800000E+00  1.00800000E+00  1.60000000E+01  1.00800000E+00  1.00800000E+00
  1.60000000E+01  1.00800000E+00  1.00800000E+00  1.60000000E+01  1.00800000E+00
  1.00800000E+00  1.60000000E+01  1.00800000E+00  1.00800000E+00  1.60000000E+01
  1.00800000E+00  1.00800000E+00  1.60000000E+01  1.00800000E+00  1.00800000E+00
  1.60000000E+01  1.00800000E+00  1.00800000E+00  1.60000000E+01  1.00800000E+00
  1.00800000E+00  1.60000000E+01  1.00800000E+00  1.00800000E+00  1.60000000E+01
  1.00800000E+00  1.00800000E+00  1.60000000E+01  1.00800000E+00  1.00800000E+00
  1.60000000E+01  1.00800000E+00  1.00800000E+00  1.60000000E+01  1.00800000E+00
  1.00800000E+00  1.60000000E+01  1.00800000E+00  1.00800000E+00  1.60000000E+01
  1.00800000E+00  1.00800000E+00  1.60000000E+01  1.00800000E+00  1.00800000E+00
  1.60000000E+01  1.00800000E+00  1.00800000E+00  1.60000000E+01  1.00800000E+00
  1.00800000E+00  1.60000000E+01  1.00800000E+00  1.00800000E+00  1.60000000E+01
  1.00800000E+00  1.00800000E+00  1.60000000E+01  1.00800000E+00  1.00800000E+00
  1.60000000E+01  1.00800000E+00  1.00800000E+00  1.60000000E+01  1.00800000E+00
  1.00800000E+00  1.60000000E+01  1.00800000E+00  1.00800000E+00  1.60000000E+01
  1.00800000E+00  1.00800000E+00  1.60000000E+01  1.00800000E+00  1.00800000E+00
  1.60000000E+01  1.00800000E+00  1.00800000E+00  1.60000000E+01  1.00800000E+00
  1.00800000E+00  1.60000000E+01  1.00800000E+00  1.00800000E+00  1.60000000E+01
  1.00800000E+00  1.00800000E+00  1.60000000E+01  1.00800000E+00  1.00800000E+00
  1.60000000E+01  1.00800000E+00  1.00800000E+00  1.60000000E+01  1.00800000E+00
  1.00800000E+00  1.60000000E+01  1.00800000E+00  1.00800000E+00  1.60000000E+01
  1.00800000E+00  1.00800000E+00  1.60000000E+01  1.00800000E+00  1.00800000E+00
  1.60000000E+01  1.00800000E+00  1.00800000E+00  1.60000000E+01  1.00800000E+00
  1.00800000E+00  1.60000000E+01  1.00800000E+00  1.00800000E+00  1.60000000E+01
  1.00800000E+00  1.00800000E+00  1.60000000E+01  1.00800000E+00  1.00800000E+00
  1.60000000E+01  1.00800000E+00  1.00800000E+00  1.60000000E+01  1.00800000E+00
  1.00800000E+00  1.60000000E+01  1.00800000E+00  1.00800000E+00  1.60000000E+01
  1.00800000E+00  1.00800000E+00  1.60000000E+01  1.00800000E+00  1.00800000E+00
  1.60000000E+01  1.00800000E+00  1.00800000E+00  1.60000000E+01  1.00800000E+00
  1.00800000E+00  1.60000000E+01  1.00800000E+00  1.00800000E+00  1.60000000E+01
  1.00800000E+00  1.00800000E+00  1.60000000E+01  1.00800000E+00  1.00800000E+00
  1.60000000E+01  1.00800000E+00  1.00800000E+00  1.60000000E+01  1.00800000E+00
  1.00800000E+00  1.60000000E+01  1.00800000E+00  1.00800000E+00  1.60000000E+01
  1.00800000E+00  1.00800000E+00  1.60000000E+01  1.00800000E+00  1.00800000E+00
  1.60000000E+01  1.00800000E+00  1.00800000E+00  1.60000000E+01  1.00800000E+00
  1.00800000E+00  1.60000000E+01  1.00800000E+00  1.00800000E+00  1.60000000E+01
  1.00800000E+00  1.00800000E+00  1.60000000E+01  1.00800000E+00  1.00800000E+00
  1.60000000E+01  1.00800000E+00  1.00800000E+00  1.60000000E+01  1.00800000E+00
  1.00800000E+00  1.60000000E+01  1.00800000E+00  1.00800000E+00  1.60000000E+01
  1.00800000E+00  1.00800000E+00  1.60000000E+01  1.00800000E+00  1.00800000E+00
  1.60000000E+01  1.00800000E+00  1.00800000E+00  1.60000000E+01  1.00800000E+00
  1.00800000E+00  1.60000000E+01  1.00800000E+00  1.00800000E+00  1.60000000E+01
  1.00800000E+00  1.00800000E+00  1.60000000E+01  1.00800000E+00  1.00800000E+00
  1.60000000E+01  1.00800000E+00  1.00800000E+00  1.60000000E+01  1.00800000E+00
  1.00800000E+00  1.60000000E+01  1.00800000E+00  1.00800000E+00  1.60000000E+01
  1.00800000E+00  1.00800000E+00  1.60000000E+01  1.00800000E+00  1.00800000E+00
  1.60000000E+01  1.00800000E+00  1.00800000E+00  1.60000000E+01  1.00800000E+00
  1.00800000E+00  1.60000000E+01  1.00800000E+00  1.00800000E+00  1.60000000E+01
  1.00800000E+00  1.00800000E+00  1.60000000E+01  1.00800000E+00  1.00800000E+00
  1.60000000E+01  1.00800000E+00  1.00800000E+00  1.60000000E+01  1.00800000E+00
  1.00800000E+00  1.60000000E+01  1.00800000E+00  1.00800000E+00  1.60000000E+01
  1.00800000E+00  1.00800000E+00  1.60000000E+01  1.00800000E+00  1.00800000E+00
  1.60000000E+01  1.00800000E+00  1.00800000E+00  1.60000000E+01  1.00800000E+00
  1.00800000E+00  1.60000000E+01  1.00800000E+00  1.00800000E+00  1.60000000E+01
  1.00800000E+00  1.00800000E+00  1.60000000E+01  1.00800000E+00  1.00800000E+00
  1.60000000E+01  1.00800000E+00  1.00800000E+00  1.60000000E+01  1.00800000E+00
  1.00800000E+00  1.60000000E+01  1.00800000E+00  1.00800000E+00  1.60000000E+01
  1.00800000E+00  1.00800000E+00  1.60000000E+01  1.00800000E+00  1.00800000E+00
  1.60000000E+01  1.00800000E+00  1.00800000E+00  1.60000000E+01  1.00800000E+00
  1.00800000E+00  1.60000000E+01  1.00800000E+00  1.00800000E+00  1.60000000E+01
  1.00800000E+00  1.00800000E+00  1.60000000E+01  1.00800000E+00  1.00800000E+00
  1.60000000E+01  1.00800000E+00  1.00800000E+00  1.60000000E+01  1.00800000E+00
  1.00800000E+00  1.60000000E+01  1.00800000E+00  1.00800000E+00  1.60000000E+01
  1.00800000E+00  1.00800000E+00  1.60000000E+01  1.00800000E+00  1.00800000E+00
  1.60000000E+01  1.00800000E+00  1.00800000E+00  1.60000000E+01  1.00800000E+00
  1.00800000E+00  1.60000000E+01  1.00800000E+00  1.00800000E+00  1.60000000E+01
  1.00800000E+00  1.00800000E+00  1.60000000E+01  1.00800000E+00  1.00800000E+00
  1.60000000E+01  1.00800000E+00  1.00800000E+00  1.60000000E+01  1.00800000E+00
  1.00800000E+00  1.60000000E+01  1.00800000E+00  1.00800000E+00  1.60000000E+01
  1.00800000E+00  1.00800000E+00  1.60000000E+01  1.00800000E+00  1.00800000E+00
  1.60000000E+01  1.00800000E+00  1.00800000E+00  1.60000000E+01  1.00800000E+00
  1.00800000E+00  1.60000000E+01  1.00800000E+00  1.00800000E+00  1.60000000E+01
  1.00800000E+00  1.00800000E+00  1.60000000E+01  1.00800000E+00  1.00800000E+00
  1.60000000E+01  1.00800000E+00  1.00800000E+00  1.60000000E+01  1.00800000E+00
  1.00800000E+00  1.60000000E+01  1.00800000E+00  1.00800000E+00  1.60000000E+01
  1.00800000E+00  1.00800000E+00  1.60000000E+01  1.00800000E+00  1.00800000E+00
  1.60000000E+01  1.00800000E+00  1.00800000E+00  1.60000000E+01  1.00800000E+00
  1.00800000E+00  1.60000000E+01  1.00800000E+00  1.00800000E+00  1.60000000E+01
  1.00800000E+00  1.00800000E+00  1.60000000E+01  1.00800000E+00  1.00800000E+00
  1.60000000E+01  1.00800000E+00  1.00800000E+00  1.60000000E+01  1.00800000E+00
  1.00800000E+00  1.60000000E+01  1.00800000E+00  1.00800000E+00  1.60000000E+01
  1.00800000E+00  1.00800000E+00  1.60000000E+01  1.00800000E+00  1.00800000E+00
  1.60000000E+01  1.00800000E+00  1.00800000E+00  1.60000000E+01  1.00800000E+00
  1.00800000E+00  1.60000000E+01  1.00800000E+00  1.00800000E+00  1.60000000E+01
  1.00800000E+00  1.00800000E+00  1.60000000E+01  1.00800000E+00  1.00800000E+00
  1.60000000E+01  1.00800000E+00  1.00800000E+00  1.60000000E+01  1.00800000E+00
  1.00800000E+00  1.60000000E+01  1.00800000E+00  1.00800000E+00  1.60000000E+01
  1.00800000E+00  1.00800000E+00  1.60000000E+01  1.00800000E+00  1.00800000E+00
  1.60000000E+01  1.00800000E+00  1.00800000E+00  1.60000000E+01  1.00800000E+00
  1.00800000E+00  1.60000000E+01  1.00800000E+00  1.00800000E+00  1.60000000E+01
  1.00800000E+00  1.00800000E+00  1.60000000E+01  1.00800000E+00  1.00800000E+00
  1.60000000E+01  1.00800000E+00  1.00800000E+00  1.60000000E+01  1.00800000E+00
  1.00800000E+00  1.60000000E+01  1.00800000E+00  1.00800000E+00  1.60000000E+01
  1.00800000E+00  1.00800000E+00  1.60000000E+01  1.00800000E+00  1.00800000E+00
  1.60000000E+01  1.00800000E+00  1.00800000E+00  1.60000000E+01  1.00800000E+00
  1.00800000E+00  1.60000000E+01  1.00800000E+00  1.00800000E+00  1.60000000E+01
  1.00800000E+00  1.00800000E+00  1.60000000E+01  1.00800000E+00  1.00800000E+00
  1.60000000E+01  1.00800000E+00  1.00800000E+00  1.60000000E+01  1.00800000E+00
  1.00800000E+00  1.60000000E+01  1.00800000E+00  1.00800000E+00  1.60000000E+01
  1.00800000E+00  1.00800000E+00  1.60000000E+01  1.00800000E+00  1.00800000E+00
  1.60000000E+01  1.00800000E+00  1.00800000E+00  1.60000000E+01  1.00800000E+00
  1.00800000E+00  1.60000000E+01  1.00800000E+00  1.00800000E+00  1.60000000E+01
  1.00800000E+00  1.00800000E+00  1.60000000E+01  1.00800000E+00  1.00800000E+00
  1.60000000E+01  1.00800000E+00  1.00800000E+00  1.60000000E+01  1.00800000E+00
  1.00800000E+00  1.60000000E+01  1.00800000E+00  1.00800000E+00  1.60000000E+01
  1.00800000E+00  1.00800000E+00  1.60000000E+01  1.00800000E+00  1.00800000E+00
  1.60000000E+01  1.00800000E+00  1.00800000E+00  1.60000000E+01  1.00800000E+00
  1.00800000E+00  1.60000000E+01  1.00800000E+00  1.00800000E+00  1.60000000E+01
  1.00800000E+00  1.00800000E+00  1.60000000E+01  1.00800000E+00  1.00800000E+00
  1.60000000E+01  1.00800000E+00  1.00800000E+00  1.60000000E+01  1.00800000E+00
  1.00800000E+00  1.60000000E+01  1.00800000E+00  1.00800000E+00  1.60000000E+01
  1.00800000E+00  1.00800000E+00  1.60000000E+01  1.00800000E+00  1.00800000E+00
  1.60000000E+01  1.00800000E+00  1.00800000E+00  1.60000000E+01  1.00800000E+00
  1.00800000E+00  1.60000000E+01  1.00800000E+00  1.00800000E+00  1.60000000E+01
  1.00800000E+00  1.00800000E+00  1.60000000E+01  1.00800000E+00  1.00800000E+00
  1.60000000E+01  1.00800000E+00  1.00800000E+00  1.60000000E+01  1.00800000E+00
  1.00800000E+00  1.60000000E+01  1.00800000E+00  1.00800000E+00  1.60000000E+01
  1.00800000E+00  1.00800000E+00  1.60000000E+01  1.00800000E+00  1.00800000E+00
  1.60000000E+01  1.00800000E+00  1.00800000E+00  1.60000000E+01  1.00800000E+00
  1.00800000E+00  1.60000000E+01  1.00800000E+00  1.00800000E+00  1.60000000E+01
  1.00800000E+00  1.00800000E+00  1.60000000E+01  1.00800000E+00  1.00800000E+00
  1.60000000E+01  1.00800000E+00  1.00800000E+00  1.60000000E+01  1.00800000E+00
  1.00800000E+00  1.60000000E+01  1.00800000E+00  1.00800000E+00  1.60000000E+01
  1.00800000E+00  1.00800000E+00  1.60000000E+01  1.00800000E+00  1.00800000E+00
  1.60000000E+01  1.00800000E+00  1.00800000E+00  1.60000000E+01  1.00800000E+00
  1.00800000E+00  1.60000000E+01  1.00800000E+00  1.00800000E+00  1.60000000E+01
  1.00800000E+00  1.00800000E+00  1.60000000E+01  1.00800000E+00  1.00800000E+00
  1.60000000E+01  1.00800000E+00  1.00800000E+00  1.60000000E+01  1.00800000E+00
  1.00800000E+00  1.60000000E+01  1.00800000E+00  1.00800000E+00  1.60000000E+01
  1.00800000E+00  1.00800000E+00  1.60000000E+01  1.00800000E+00  1.00800000E+00
  1.60000000E+01  1.00800000E+00  1.00800000E+00  1.60000000E+01  1.00800000E+00
  1.00800000E+00  1.60000000E+01  1.00800000E+00  1.00800000E+00  1.60000000E+01
  1.00800000E+00  1.00800000E+00  1.60000000E+01  1.00800000E+00  1.00800000E+00
  1.60000000E+01  1.00800000E+00  1.00800000E+00  1.60000000E+01  1.00800000E+00
  1.00800000E+00  1.60000000E+01  1.00800000E+00  1.00800000E+00  1.60000000E+01
  1.00800000E+00  1.00800000E+00  1.60000000E+01  1.00800000E+00  1.00800000E+00
  1.60000000E+01  1.00800000E+00  1.00800000E+00  1.60000000E+01  1.00800000E+00
  1.00800000E+00  1.60000000E+01  1.00800000E+00  1.00800000E+00  1.60000000E+01
  1.00800000E+00  1.00800000E+00  1.60000000E+01  1.00800000E+00  1.00800000E+00
  1.60000000E+01  1.00800000E+00  1.00800000E+00  1.60000000E+01  1.00800000E+00
  1.00800000E+00  1.60000000E+01  1.00800000E+00  1.00800000E+00  1.60000000E+01
  1.00800000E+00  1.00800000E+00  1.60000000E+01  1.00800000E+00  1.00800000E+00
  1.60000000E+01  1.00800000E+00  1.00800000E+00  1.60000000E+01  1.00800000E+00
  1.00800000E+00  1.60000000E+01  1.00800000E+00  1.00800000E+00  1.60000000E+01
  1.00800000E+00  1.00800000E+00  1.60000000E+01  1.00800000E+00  1.00800000E+00
  1.60000000E+01  1.00800000E+00  1.00800000E+00  1.60000000E+01  1.00800000E+00
  1.00800000E+00  1.60000000E+01  1.00800000E+00  1.00800000E+00  1.60000000E+01
  1.00800000E+00  1.00800000E+00  1.60000000E+01  1.00800000E+00  1.00800000E+00
  1.60000000E+01  1.00800000E+00  1.00800000E+00  1.60000000E+01  1.00800000E+00
  1.00800000E+00  1.60000000E+01  1.00800000E+00  1.00800000E+00  1.60000000E+01
  1.00800000E+00  1.00800000E+00  1.60000000E+01  1.00800000E+00  1.00800000E+00
  1.60000000E+01  1.00800000E+00  1.00800000E+00  1.60000000E+01  1.00800000E+00
  1.00800000E+00  1.60000000E+01  1.00800000E+00  1.00800000E+00  1.60000000E+01
  1.00800000E+00  1.00800000E+00  1.60000000E+01  1.00800000E+00  1.00800000E+00
  1.60000000E+01  1.00800000E+00  1.00800000E+00  1.60000000E+01  1.00800000E+00
  1.00800000E+00  1.60000000E+01  1.00800000E+00  1.00800000E+00  1.60000000E+01
  1.00800000E+00  1.00800000E+00  1.60000000E+01  1.00800000E+00  1.00800000E+00
  1.60000000E+01  1.00800000E+00  1.00800000E+00  1.60000000E+01  1.00800000E+00
  1.00800000E+00  1.60000000E+01  1.00800000E+00  1.00800000E+00  1.60000000E+01
  1.00800000E+00  1.00800000E+00  1.60000000E+01  1.00800000E+00  1.00800000E+00
  1.60000000E+01  1.00800000E+00  1.00800000E+00  1.60000000E+01  1.00800000E+00
  1.00800000E+00  1.60000000E+01  1.00800000E+00  1.00800000E+00  1.60000000E+01
  1.00800000E+00  1.00800000E+00  1.60000000E+01  1.00800000E+00  1.00800000E+00
  1.60000000E+01  1.00800000E+00  1.00800000E+00  1.60000000E+01  1.00800000E+00
  1.00800000E+00  1.60000000E+01  1.00800000E+00  1.00800000E+00  1.60000000E+01
  1.00800000E+00  1.00800000E+00  1.60000000E+01  1.00800000E+00  1.00800000E+00
  1.60000000E+01  1.00800000E+00  1.00800000E+00  1.60000000E+01  1.00800000E+00
  1.00800000E+00  1.60000000E+01  1.00800000E+00  1.00800000E+00  1.60000000E+01
  1.00800000E+00  1.00800000E+00  1.60000000E+01  1.00800000E+00  1.00800000E+00
  1.60000000E+01  1.00800000E+00  1.00800000E+00  1.60000000E+01  1.00800000E+00
  1.00800000E+00  1.60000000E+01  1.00800000E+00  1.00800000E+00  1.60000000E+01
  1.00800000E+00  1.00800000E+00  1.60000000E+01  1.00800000E+00  1.00800000E+00
  1.60000000E+01  1.00800000E+00  1.00800000E+00  1.60000000E+01  1.00800000E+00
  1.00800000E+00  1.60000000E+01  1.00800000E+00  1.00800000E+00  1.60000000E+01
  1.00800000E+00  1.00800000E+00  1.60000000E+01  1.00800000E+00  1.00800000E+00
  1.60000000E+01  1.00800000E+00  1.00800000E+00  1.60000000E+01  1.00800000E+00
  1.00800000E+00  1.60000000E+01  1.00800000E+00  1.00800000E+00  1.60000000E+01
  1.00800000E+00  1.00800000E+00  1.60000000E+01  1.00800000E+00  1.00800000E+00
  1.60000000E+01  1.00800000E+00  1.00800000E+00  1.60000000E+01  1.00800000E+00
  1.00800000E+00  1.60000000E+01  1.00800000E+00  1.00800000E+00  1.60000000E+01
  1.00800000E+00  1.00800000E+00  1.60000000E+01  1.00800000E+00  1.00800000E+00
  1.60000000E+01  1.00800000E+00  1.00800000E+00  1.60000000E+01  1.00800000E+00
  1.00800000E+00  1.60000000E+01  1.00800000E+00  1.00800000E+00  1.60000000E+01
  1.00800000E+00  1.00800000E+00  1.60000000E+01  1.00800000E+00  1.00800000E+00
  1.60000000E+01  1.00800000E+00  1.00800000E+00  1.60000000E+01  1.00800000E+00
  1.00800000E+00  1.60000000E+01  1.00800000E+00  1.00800000E+00  1.60000000E+01
  1.00800000E+00  1.00800000E+00  1.60000000E+01  1.00800000E+00  1.00800000E+00
  1.60000000E+01  1.00800000E+00  1.00800000E+00  1.60000000E+01  1.00800000E+00
  1.00800000E+00  1.60000000E+01  1.00800000E+00  1.00800000E+00  1.60000000E+01
  1.00800000E+00  1.00800000E+00  1.60000000E+01  1.00800000E+00  1.00800000E+00
  1.60000000E+01  1.00800000E+00  1.00800000E+00  1.60000000E+01  1.00800000E+00
  1.00800000E+00  1.60000000E+01  1.00800000E+00  1.00800000E+00  1.60000000E+01
  1.00800000E+00  1.00800000E+00  1.60000000E+01  1.00800000E+00  1.00800000E+00
  1.60000000E+01  1.00800000E+00  1.00800000E+00  1.60000000E+01  1.00800000E+00
  1.00800000E+00  1.60000000E+01  1.00800000E+00  1.00800000E+00  1.60000000E+01
  1.00800000E+00  1.00800000E+00  1.60000000E+01  1.00800000E+00  1.00800000E+00
  1.60000000E+01  1.00800000E+00  1.00800000E+00  1.60000000E+01  1.00800000E+00
  1.00800000E+00  1.60000000E+01  1.00800000E+00  1.00800000E+00  1.60000000E+01
  1.00800000E+00  1.00800000E+00  1.60000000E+01  1.00800000E+00  1.00800000E+00
  1.60000000E+01  1.00800000E+00  1.00800000E+00  1.60000000E+01  1.00800000E+00
  1.00800000E+00  1.60000000E+01  1.00800000E+00  1.00800000E+00  1.60000000E+01
  1.00800000E+00  1.00800000E+00  1.60000000E+01  1.00800000E+00  1.00800000E+00
  1.60000000E+01  1.00800000E+00  1.00800000E+00  1.60000000E+01  1.00800000E+00
  1.00800000E+00  1.60000000E+01  1.00800000E+00  1.00800000E+00  1.60000000E+01
  1.00800000E+00  1.00800000E+00  1.60000000E+01  1.00800000E+00  1.00800000E+00
  1.60000000E+01  1.00800000E+00  1.00800000E+00  1.60000000E+01  1.00800000E+00
  1.00800000E+00  1.60000000E+01  1.00800000E+00  1.00800000E+00  1.60000000E+01
  1.00800000E+00  1.00800000E+00  1.60000000E+01  1.00800000E+00  1.00800000E+00
  1.60000000E+01  1.00800000E+00  1.00800000E+00  1.60000000E+01  1.00800000E+00
  1.00800000E+00  1.60000000E+01  1.00800000E+00  1.00800000E+00  1.60000000E+01
  1.00800000E+00  1.00800000E+00  1.60000000E+01  1.00800000E+00  1.00800000E+00
  1.60000000E+01  1.00800000E+00  1.00800000E+00  1.60000000E+01  1.00800000E+00
  1.00800000E+00  1.60000000E+01  1.00800000E+00  1.00800000E+00  1.60000000E+01
  1.00800000E+00  1.00800000E+00  1.60000000E+01  1.00800000E+00  1.00800000E+00
  1.60000000E+01  1.00800000E+00  1.00800000E+00  1.60000000E+01  1.00800000E+00
  1.00800000E+00  1.60000000E+01  1.00800000E+00  1.00800000E+00  1.60000000E+01
  1.00800000E+00  1.00800000E+00  1.60000000E+01  1.00800000E+00  1.00800000E+00
  1.60000000E+01  1.00800000E+00  1.00800000E+00  1.60000000E+01  1.00800000E+00
  1.00800000E+00  1.60000000E+01  1.00800000E+00  1.00800000E+00  1.60000000E+01
  1.00800000E+00  1.00800000E+00  1.60000000E+01  1.00800000E+00  1.00800000E+00
  1.60000000E+01  1.00800000E+00  1.00800000E+00  1.60000000E+01  1.00800000E+00
  1.00800000E+00  1.60000000E+01  1.00800000E+00  1.00800000E+00  1.60000000E+01
  1.00800000E+00  1.00800000E+00  1.60000000E+01  1.00800000E+00  1.00800000E+00
  1.60000000E+01  1.00800000E+00  1.00800000E+00  1.60000000E+01  1.00800000E+00
  1.00800000E+00  1.60000000E+01  1.00800000E+00  1.00800000E+00  1.60000000E+01
  1.00800000E+00  1.00800000E+00  1.60000000E+01  1.00800000E+00  1.00800000E+00
  1.60000000E+01  1.00800000E+00  1.00800000E+00  1.60000000E+01  1.00800000E+00
  1.00800000E+00  1.60000000E+01  1.00800000E+00  1.00800000E+00  1.60000000E+01
  1.00800000E+00  1.00800000E+00  1.60000000E+01  1.00800000E+00  1.00800000E+00
  1.60000000E+01  1.00800000E+00  1.00800000E+00  1.60000000E+01  1.00800000E+00
  1.00800000E+00  1.60000000E+01  1.00800000E+00  1.00800000E+00  1.60000000E+01
  1.00800000E+00  1.00800000E+00  1.60000000E+01  1.00800000E+00  1.00800000E+00
  1.60000000E+01  1.00800000E+00  1.00800000E+00  1.60000000E+01  1.00800000E+00
  1.00800000E+00  1.60000000E+01  1.00800000E+00  1.00800000E+00  1.60000000E+01
  1.00800000E+00  1.00800000E+00  1.60000000E+01  1.00800000E+00  1.00800000E+00
  1.60000000E+01  1.00800000E+00  1.00800000E+00  1.60000000E+01  1.00800000E+00
  1.00800000E+00  1.60000000E+01  1.00800000E+00  1.00800000E+00  1.60000000E+01
  1.00800000E+00  1.00800000E+00  1.60000000E+01  1.00800000E+00  1.00800000E+00
  1.60000000E+01  1.00800000E+00  1.00800000E+00  1.60000000E+01  1.00800000E+00
  1.00800000E+00  1.60000000E+01  1.00800000E+00  1.00800000E+00  1.60000000E+01
  1.00800000E+00  1.00800000E+00  1.60000000E+01  1.00800000E+00  1.00800000E+00
  1.60000000E+01  1.00800000E+00  1.00800000E+00  1.60000000E+01  1.00800000E+00
  1.00800000E+00  1.60000000E+01  1.00800000E+00  1.00800000E+00  1.60000000E+01
  1.00800000E+00  1.00800000E+00  1.60000000E+01  1.00800000E+00  1.00800000E+00
  1.60000000E+01  1.00800000E+00  1.00800000E+00  1.60000000E+01  1.00800000E+00
  1.00800000E+00  1.60000000E+01  1.00800000E+00  1.00800000E+00  1.60000000E+01
  1.00800000E+00  1.00800000E+00  1.60000000E+01  1.00800000E+00  1.00800000E+00
  1.60000000E+01  1.00800000E+00  1.00800000E+00  1.60000000E+01  1.00800000E+00
  1.00800000E+00  1.60000000E+01  1.00800000E+00  1.00800000E+00  1.60000000E+01
  1.00800000E+00  1.00800000E+00  1.60000000E+01  1.00800000E+00  1.00800000E+00
  1.60000000E+01  1.00800000E+00  1.00800000E+00  1.60000000E+01  1.00800000E+00
  1.00800000E+00  1.60000000E+01  1.00800000E+00  1.00800000E+00  1.60000000E+01
  1.00800000E+00  1.00800000E+00  1.60000000E+01  1.00800000E+00  1.00800000E+00
  1.60000000E+01  1.00800000E+00  1.00800000E+00  1.60000000E+01  1.00800000E+00
  1.00800000E+00  1.60000000E+01  1.00800000E+00  1.00800000E+00  1.60000000E+01
  1.00800000E+00  1.00800000E+00  1.60000000E+01  1.00800000E+00  1.00800000E+00
  1.60000000E+01  1.00800000E+00  1.00800000E+00  1.60000000E+01  1.00800000E+00
  1.00800000E+00  1.60000000E+01  1.00800000E+00  1.00800000E+00  1.60000000E+01
  1.00800000E+00  1.00800000E+00  1.60000000E+01  1.00800000E+00  1.00800000E+00
  1.60000000E+01  1.00800000E+00  1.00800000E+00  1.60000000E+01  1.00800000E+00
  1.00800000E+00  1.60000000E+01  1.00800000E+00  1.00800000E+00  1.60000000E+01
  1.00800000E+00  1.00800000E+00  1.60000000E+01  1.00800000E+00  1.00800000E+00
  1.60000000E+01  1.00800000E+00  1.00800000E+00  1.60000000E+01  1.00800000E+00
  1.00800000E+00  1.60000000E+01  1.00800000E+00  1.00800000E+00  1.60000000E+01
  1.00800000E+00  1.00800000E+00  1.60000000E+01  1.00800000E+00  1.00800000E+00
  1.60000000E+01  1.00800000E+00  1.00800000E+00  1.60000000E+01  1.00800000E+00
  1.00800000E+00  1.60000000E+01  1.00800000E+00  1.00800000E+00  1.60000000E+01
  1.00800000E+00  1.00800000E+00  1.60000000E+01  1.00800000E+00  1.00800000E+00
  1.60000000E+01  1.00800000E+00  1.00800000E+00  1.60000000E+01  1.00800000E+00
  1.00800000E+00  1.60000000E+01  1.00800000E+00  1.00800000E+00  1.60000000E+01
  1.00800000E+00  1.00800000E+00  1.60000000E+01  1.00800000E+00  1.00800000E+00
  1.60000000E+01  1.00800000E+00  1.00800000E+00  1.60000000E+01  1.00800000E+00
  1.00800000E+00  1.60000000E+01  1.00800000E+00  1.00800000E+00  1.60000000E+01
  1.00800000E+00  1.00800000E+00  1.60000000E+01  1.00800000E+00  1.00800000E+00
  1.60000000E+01  1.00800000E+00  1.00800000E+00  1.60000000E+01  1.00800000E+00
  1.00800000E+00  1.60000000E+01  1.00800000E+00  1.00800000E+00  1.60000000E+01
  1.00800000E+00  1.00800000E+00  1.60000000E+01  1.00800000E+00  1.00800000E+00
  1.60000000E+01  1.00800000E+00  1.00800000E+00  1.60000000E+01  1.00800000E+00
  1.00800000E+00  1.60000000E+01  1.00800000E+00  1.00800000E+00  1.60000000E+01
  1.00800000E+00  1.00800000E+00  1.60000000E+01  1.00800000E+00  1.00800000E+00
  1.60000000E+01  1.00800000E+00  1.00800000E+00  1.60000000E+01  1.00800000E+00
  1.00800000E+00  1.60000000E+01  1.00800000E+00  1.00800000E+00  1.60000000E+01
  1.00800000E+00  1.00800000E+00  1.60000000E+01  1.00800000E+00  1.00800000E+00
  1.60000000E+01  1.00800000E+00  1.00800000E+00  1.60000000E+01  1.00800000E+00
  1.00800000E+00  1.60000000E+01  1.00800000E+00  1.00800000E+00  1.60000000E+01
  1.00800000E+00  1.00800000E+00  1.60000000E+01  1.00800000E+00  1.00800000E+00
  1.60000000E+01  1.00800000E+00  1.00800000E+00  1.60000000E+01  1.00800000E+00
  1.00800000E+00  1.60000000E+01  1.00800000E+00  1.00800000E+00  1.60000000E+01
  1.00800000E+00  1.00800000E+00  1.60000000E+01  1.00800000E+00  1.00800000E+00
  1.60000000E+01  1.00800000E+00  1.00800000E+00  1.60000000E+01  1.00800000E+00
  1.00800000E+00  1.60000000E+01  1.00800000E+00  1.00800000E+00  1.60000000E+01
  1.00800000E+00  1.00800000E+00  1.60000000E+01  1.00800000E+00  1.00800000E+00
  1.60000000E+01  1.00800000E+00  1.00800000E+00  1.60000000E+01  1.00800000E+00
  1.00800000E+00  1.60000000E+01  1.00800000E+00  1.00800000E+00  1.60000000E+01
  1.00800000E+00  1.00800000E+00  1.60000000E+01  1.00800000E+00  1.00800000E+00
  1.60000000E+01  1.00800000E+00  1.00800000E+00  1.60000000E+01  1.00800000E+00
  1.00800000E+00  1.60000000E+01  1.00800000E+00  1.00800000E+00  1.60000000E+01
  1.00800000E+00  1.00800000E+00  1.60000000E+01  1.00800000E+00  1.00800000E+00
  1.60000000E+01  1.00800000E+00  1.00800000E+00  1.60000000E+01  1.00800000E+00
  1.00800000E+00  1.60000000E+01  1.00800000E+00  1.00800000E+00  1.60000000E+01
  1.00800000E+00  1.00800000E+00  1.60000000E+01  1.00800000E+00  1.00800000E+00
  1.60000000E+01  1.00800000E+00  1.00800000E+00  1.60000000E+01  1.00800000E+00
  1.00800000E+00  1.60000000E+01  1.00800000E+00  1.00800000E+00  1.60000000E+01
  1.00800000E+00  1.00800000E+00  1.60000000E+01  1.00800000E+00  1.00800000E+00
  1.60000000E+01  1.00800000E+00  1.00800000E+00  1.60000000E+01  1.00800000E+00
  1.00800000E+00  1.60000000E+01  1.00800000E+00  1.00800000E+00  1.60000000E+01
  1.00800000E+00  1.00800000E+00  1.60000000E+01  1.00800000E+00  1.00800000E+00
  1.60000000E+01  1.00800000E+00  1.00800000E+00  1.60000000E+01  1.00800000E+00
  1.00800000E+00  1.60000000E+01  1.00800000E+00  1.00800000E+00  1.60000000E+01
  1.00800000E+00  1.00800000E+00  1.60000000E+01  1.00800000E+00  1.00800000E+00
  1.60000000E+01  1.00800000E+00  1.00800000E+00  1.60000000E+01  1.00800000E+00
  1.00800000E+00  1.60000000E+01  1.00800000E+00  1.00800000E+00  1.60000000E+01
  1.00800000E+00  1.00800000E+00  1.60000000E+01  1.00800000E+00  1.00800000E+00
  1.60000000E+01  1.00800000E+00  1.00800000E+00  1.60000000E+01  1.00800000E+00
  1.00800000E+00  1.60000000E+01  1.00800000E+00  1.00800000E+00  1.60000000E+01
  1.00800000E+00  1.00800000E+00  1.60000000E+01  1.00800000E+00  1.00800000E+00
  1.60000000E+01  1.00800000E+00  1.00800000E+00  1.60000000E+01  1.00800000E+00
  1.00800000E+00  1.60000000E+01  1.00800000E+00  1.00800000E+00  1.60000000E+01
  1.00800000E+00  1.00800000E+00  1.60000000E+01  1.00800000E+00  1.00800000E+00
  1.60000000E+01  1.00800000E+00  1.00800000E+00  1.60000000E+01  1.00800000E+00
  1.00800000E+00  1.60000000E+01  1.00800000E+00  1.00800000E+00  1.60000000E+01
  1.00800000E+00  1.00800000E+00  1.60000000E+01  1.00800000E+00  1.00800000E+00
  1.60000000E+01  1.00800000E+00  1.00800000E+00  1.60000000E+01  1.00800000E+00
  1.00800000E+00  1.60000000E+01  1.00800000E+00  1.00800000E+00  1.60000000E+01
  1.00800000E+00  1.00800000E+00  1.60000000E+01  1.00800000E+00  1.00800000E+00
  1.60000000E+01  1.00800000E+00  1.00800000E+00  1.60000000E+01  1.00800000E+00
  1.00800000E+00  1.60000000E+01  1.00800000E+00  1.00800000E+00  1.60000000E+01
  1.00800000E+00  1.00800000E+00  1.60000000E+01  1.00800000E+00  1.00800000E+00
  1.60000000E+01  1.00800000E+00  1.00800000E+00  1.60000000E+01  1.00800000E+00
  1.00800000E+00  1.60000000E+01  1.00800000E+00  1.00800000E+00  1.60000000E+01
  1.00800000E+00  1.00800000E+00  1.60000000E+01  1.00800000E+00  1.00800000E+00
  1.60000000E+01  1.00800000E+00  1.00800000E+00  1.60000000E+01  1.00800000E+00
  1.00800000E+00  1.60000000E+01  1.00800000E+00  1.00800000E+00  1.60000000E+01
  1.00800000E+00  1.00800000E+00  1.60000000E+01  1.00800000E+00  1.00800000E+00
  1.60000000E+01  1.00800000E+00  1.00800000E+00  1.60000000E+01  1.00800000E+00
  1.00800000E+00  1.60000000E+01  1.00800000E+00  1.00800000E+00  1.60000000E+01
  1.00800000E+00  1.00800000E+00  1.60000000E+01  1.00800000E+00  1.00800000E+00
  1.60000000E+01  1.00800000E+00  1.00800000E+00  1.60000000E+01  1.00800000E+00
  1.00800000E+00  1.60000000E+01  1.00800000E+00  1.00800000E+00  1.60000000E+01
  1.00800000E+00  1.00800000E+00  1.60000000E+01  1.00800000E+00  1.00800000E+00
  1.60000000E+01  1.00800000E+00  1.00800000E+00  1.60000000E+01  1.00800000E+00
  1.00800000E+00  1.60000000E+01  1.00800000E+00  1.00800000E+00  1.60000000E+01
  1.00800000E+00  1.00800000E+00  1.60000000E+01  1.00800000E+00  1.00800000E+00
  1.60000000E+01  1.00800000E+00  1.00800000E+00  1.60000000E+01  1.00800000E+00
  1.00800000E+00  1.60000000E+01  1.00800000E+00  1.00800000E+00  1.60000000E+01
  1.00800000E+00  1.00800000E+00  1.60000000E+01  1.00800000E+00  1.00800000E+00
  1.60000000E+01  1.00800000E+00  1.00800000E+00  1.60000000E+01  1.00800000E+00
  1.00800000E+00  1.60000000E+01  1.00800000E+00  1.00800000E+00  1.60000000E+01
  1.00800000E+00  1.00800000E+00  1.60000000E+01  1.00800000E+00  1.00800000E+00
  1.60000000E+01  1.00800000E+00  1.00800000E+00  1.60000000E+01  1.00800000E+00
  1.00800000E+00  1.60000000E+01  1.00800000E+00  1.00800000E+00  1.60000000E+01
  1.00800000E+00  1.00800000E+00  1.60000000E+01  1.00800000E+00  1.00800000E+00
  1.60000000E+01  1.00800000E+00  1.00800000E+00  1.60000000E+01  1.00800000E+00
  1.00800000E+00  1.60000000E+01  1.00800000E+00  1.00800000E+00  1.60000000E+01
  1.00800000E+00  1.00800000E+00  1.60000000E+01  1.00800000E+00  1.00800000E+00
  1.60000000E+01  1.00800000E+00  1.00800000E+00  1.60000000E+01  1.00800000E+00
  1.00800000E+00  1.60000000E+01  1.00800000E+00  1.00800000E+00  1.60000000E+01
  1.00800000E+00  1.00800000E+00  1.60000000E+01  1.00800000E+00  1.00800000E+00
  1.60000000E+01  1.00800000E+00  1.00800000E+00  1.60000000E+01  1.00800000E+00
  1.00800000E+00  1.60000000E+01  1.00800000E+00  1.00800000E+00  1.60000000E+01
  1.00800000E+00  1.00800000E+00  1.60000000E+01  1.00800000E+00  1.00800000E+00
  1.60000000E+01  1.00800000E+00  1.00800000E+00  1.60000000E+01  1.00800000E+00
  1.00800000E+00  1.60000000E+01  1.00800000E+00  1.00800000E+00  1.60000000E+01
  1.00800000E+00  1.00800000E+00  1.60000000E+01  1.00800000E+00  1.00800000E+00
  1.60000000E+01  1.00800000E+00  1.00800000E+00  1.60000000E+01  1.00800000E+00
  1.00800000E+00  1.60000000E+01  1.00800000E+00  1.00800000E+00  1.60000000E+01
  1.00800000E+00  1.00800000E+00  1.60000000E+01  1.00800000E+00  1.00800000E+00
  1.60000000E+01  1.00800000E+00  1.00800000E+00  1.60000000E+01  1.00800000E+00
  1.00800000E+00  1.60000000E+01  1.00800000E+00  1.00800000E+00  1.60000000E+01
  1.00800000E+00  1.00800000E+00  1.60000000E+01  1.00800000E+00  1.00800000E+00
  1.60000000E+01  1.00800000E+00  1.00800000E+00  1.60000000E+01  1.00800000E+00
  1.00800000E+00  1.60000000E+01  1.00800000E+00  1.00800000E+00  1.60000000E+01
  1.00800000E+00  1.00800000E+00  1.60000000E+01  1.00800000E+00  1.00800000E+00
  1.60000000E+01  1.00800000E+00  1.00800000E+00  1.60000000E+01  1.00800000E+00
  1.00800000E+00  1.60000000E+01  1.00800000E+00  1.00800000E+00  1.60000000E+01
  1.00800000E+00  1.00800000E+00  1.60000000E+01  1.00800000E+00  1.00800000E+00
  1.60000000E+01  1.00800000E+00  1.00800000E+00  1.60000000E+01  1.00800000E+00
  1.00800000E+00  1.60000000E+01  1.00800000E+00  1.00800000E+00  1.60000000E+01
  1.00800000E+00  1.00800000E+00  1.60000000E+01  1.00800000E+00  1.00800000E+00
  1.60000000E+01  1.00800000E+00  1.00800000E+00  1.60000000E+01  1.00800000E+00
  1.00800000E+00  1.60000000E+01  1.00800000E+00  1.00800000E+00  1.60000000E+01
  1.00800000E+00  1.00800000E+00  1.60000000E+01  1.00800000E+00  1.00800000E+00
  1.60000000E+01  1.00800000E+00  1.00800000E+00  1.60000000E+01  1.00800000E+00
  1.00800000E+00  1.60000000E+01  1.00800000E+00  1.00800000E+00  1.60000000E+01
  1.00800000E+00  1.00800000E+00  1.60000000E+01  1.00800000E+00  1.00800000E+00
  1.60000000E+01  1.00800000E+00  1.00800000E+00  1.60000000E+01  1.00800000E+00
  1.00800000E+00  1.60000000E+01  1.00800000E+00  1.00800000E+00  1.60000000E+01
  1.00800000E+00  1.00800000E+00  1.60000000E+01  1.00800000E+00  1.00800000E+00
  1.60000000E+01  1.00800000E+00  1.00800000E+00  1.60000000E+01  1.00800000E+00
  1.00800000E+00  1.60000000E+01  1.00800000E+00  1.00800000E+00  1.60000000E+01
  1.00800000E+00  1.00800000E+00  1.60000000E+01  1.00800000E+00  1.00800000E+00
  1.60000000E+01  1.00800000E+00  1.00800000E+00  1.60000000E+01  1.00800000E+00
  1.00800000E+00  1.60000000E+01  1.00800000E+00  1.00800000E+00  1.60000000E+01
  1.00800000E+00  1.00800000E+00  1.60000000E+01  1.00800000E+00  1.00800000E+00
  1.60000000E+01  1.00800000E+00  1.00800000E+00  1.60000000E+01  1.00800000E+00
  1.00800000E+00  1.60000000E+01  1.00800000E+00  1.00800000E+00  1.60000000E+01
  1.00800000E+00  1.00800000E+00  1.60000000E+01  1.00800000E+00  1.00800000E+00
  1.60000000E+01  1.00800000E+00  1.00800000E+00  1.60000000E+01  1.00800000E+00
  1.00800000E+00  1.60000000E+01  1.00800000E+00  1.00800000E+00  1.60000000E+01
  1.00800000E+00  1.00800000E+00  1.60000000E+01  1.00800000E+00  1.00800000E+00
  1.60000000E+01  1.00800000E+00  1.00800000E+00  1.60000000E+01  1.00800000E+00
  1.00800000E+00  1.60000000E+01  1.00800000E+00  1.00800000E+00  1.60000000E+01
  1.00800000E+00  1.00800000E+00  1.60000000E+01  1.00800000E+00  1.00800000E+00
  1.60000000E+01  1.00800000E+00  1.00800000E+00  1.60000000E+01  1.00800000E+00
  1.00800000E+00  1.60000000E+01  1.00800000E+00  1.00800000E+00  1.60000000E+01
  1.00800000E+00  1.00800000E+00  1.60000000E+01  1.00800000E+00  1.00800000E+00
  1.60000000E+01  1.00800000E+00  1.00800000E+00  1.60000000E+01  1.00800000E+00
  1.00800000E+00  1.60000000E+01  1.00800000E+00  1.00800000E+00  1.60000000E+01
  1.00800000E+00  1.00800000E+00  1.60000000E+01  1.00800000E+00  1.00800000E+00
  1.60000000E+01  1.00800000E+00  1.00800000E+00  1.60000000E+01  1.00800000E+00
  1.00800000E+00  1.60000000E+01  1.00800000E+00  1.00800000E+00  1.60000000E+01
  1.00800000E+00  1.00800000E+00  1.60000000E+01  1.00800000E+00  1.00800000E+00
  1.60000000E+01  1.00800000E+00  1.00800000E+00  1.60000000E+01  1.00800000E+00
  1.00800000E+00  1.60000000E+01  1.00800000E+00  1.00800000E+00  1.60000000E+01
  1.00800000E+00  1.00800000E+00  1.60000000E+01  1.00800000E+00  1.00800000E+00
  1.60000000E+01  1.00800000E+00  1.00800000E+00  1.60000000E+01  1.00800000E+00
  1.00800000E+00  1.60000000E+01  1.00800000E+00  1.00800000E+00  1.60000000E+01
  1.00800000E+00  1.00800000E+00  1.60000000E+01  1.00800000E+00  1.00800000E+00
  1.60000000E+01  1.00800000E+00  1.00800000E+00  1.60000000E+01  1.00800000E+00
  1.00800000E+00  1.60000000E+01  1.00800000E+00  1.00800000E+00  1.60000000E+01
  1.00800000E+00  1.00800000E+00  1.60000000E+01  1.00800000E+00  1.00800000E+00
  1.60000000E+01  1.00800000E+00  1.00800000E+00  1.60000000E+01  1.00800000E+00
  1.00800000E+00  1.60000000E+01  1.00800000E+00  1.00800000E+00  1.60000000E+01
  1.00800000E+00  1.00800000E+00  1.60000000E+01  1.00800000E+00  1.00800000E+00
  1.60000000E+01  1.00800000E+00  1.00800000E+00  1.60000000E+01  1.00800000E+00
  1.00800000E+00  1.60000000E+01  1.00800000E+00  1.00800000E+00  1.60000000E+01
  1.00800000E+00  1.00800000E+00  1.60000000E+01  1.00800000E+00  1.00800000E+00
  1.60000000E+01  1.00800000E+00  1.00800000E+00  1.60000000E+01  1.00800000E+00
  1.00800000E+00  1.60000000E+01  1.00800000E+00  1.00800000E+00  1.60000000E+01
  1.00800000E+00  1.00800000E+00  1.60000000E+01  1.00800000E+00  1.00800000E+00
  1.60000000E+01  1.00800000E+00  1.00800000E+00  1.60000000E+01  1.00800000E+00
  1.00800000E+00  1.60000000E+01  1.00800000E+00  1.00800000E+00  1.60000000E+01
  1.00800000E+00  1.00800000E+00  1.60000000E+01  1.00800000E+00  1.00800000E+00
  1.60000000E+01  1.00800000E+00  1.00800000E+00  1.60000000E+01  1.00800000E+00
  1.00800000E+00  1.60000000E+01  1.00800000E+00  1.00800000E+00  1.60000000E+01
  1.00800000E+00  1.00800000E+00  1.60000000E+01  1.00800000E+00  1.00800000E+00
  1.60000000E+01  1.00800000E+00  1.00800000E+00  1.60000000E+01  1.00800000E+00
  1.00800000E+00  1.60000000E+01  1.00800000E+00  1.00800000E+00  1.60000000E+01
  1.00800000E+00  1.00800000E+00  1.60000000E+01  1.00800000E+00  1.00800000E+00
  1.60000000E+01  1.00800000E+00  1.00800000E+00  1.60000000E+01  1.00800000E+00
  1.00800000E+00  1.60000000E+01  1.00800000E+00  1.00800000E+00  1.60000000E+01
  1.00800000E+00  1.00800000E+00  1.60000000E+01  1.00800000E+00  1.00800000E+00
  1.60000000E+01  1.00800000E+00  1.00800000E+00  1.60000000E+01  1.00800000E+00
  1.00800000E+00  1.60000000E+01  1.00800000E+00  1.00800000E+00  1.60000000E+01
  1.00800000E+00  1.00800000E+00  1.60000000E+01  1.00800000E+00  1.00800000E+00
  1.60000000E+01  1.00800000E+00  1.00800000E+00  1.60000000E+01  1.00800000E+00
  1.00800000E+00  1.60000000E+01  1.00800000E+00  1.00800000E+00  1.60000000E+01
  1.00800000E+00  1.00800000E+00  1.60000000E+01  1.00800000E+00  1.00800000E+00
  1.60000000E+01  1.00800000E+00  1.00800000E+00  1.60000000E+01  1.00800000E+00
  1.00800000E+00  1.60000000E+01  1.00800000E+00  1.00800000E+00  1.60000000E+01
  1.00800000E+00  1.00800000E+00  1.60000000E+01  1.00800000E+00  1.00800000E+00
  1.60000000E+01  1.00800000E+00  1.00800000E+00  1.60000000E+01  1.00800000E+00
  1.00800000E+00  1.60000000E+01  1.00800000E+00  1.00800000E+00  1.60000000E+01
  1.00800000E+00  1.00800000E+00  1.60000000E+01  1.00800000E+00  1.00800000E+00
  1.60000000E+01  1.00800000E+00  1.00800000E+00  1.60000000E+01  1.00800000E+00
  1.00800000E+00  1.60000000E+01  1.00800000E+00  1.00800000E+00  1.60000000E+01
  1.00800000E+00  1.00800000E+00  1.60000000E+01  1.00800000E+00  1.00800000E+00
  1.60000000E+01  1.00800000E+00  1.00800000E+00  1.60000000E+01  1.00800000E+00
  1.00800000E+00  1.60000000E+01  1.00800000E+00  1.00800000E+00  1.60000000E+01
  1.00800000E+00  1.00800000E+00  1.60000000E+01  1.00800000E+00  1.00800000E+00
  1.60000000E+01  1.00800000E+00  1.00800000E+00  1.60000000E+01  1.00800000E+00
  1.00800000E+00  1.60000000E+01  1.00800000E+00  1.00800000E+00  1.60000000E+01
  1.00800000E+00  1.00800000E+00  1.60000000E+01  1.00800000E+00  1.00800000E+00
  1.60000000E+01  1.00800000E+00  1.00800000E+00  1.60000000E+01  1.00800000E+00
  1.00800000E+00  1.60000000E+01  1.00800000E+00  1.00800000E+00  1.60000000E+01
  1.00800000E+00  1.00800000E+00  1.60000000E+01  1.00800000E+00  1.00800000E+00
  1.60000000E+01  1.00800000E+00  1.00800000E+00  1.60000000E+01  1.00800000E+00
  1.00800000E+00  1.60000000E+01  1.00800000E+00  1.00800000E+00  1.60000000E+01
  1.00800000E+00  1.00800000E+00  1.60000000E+01  1.00800000E+00  1.00800000E+00
  1.60000000E+01  1.00800000E+00  1.00800000E+00  1.60000000E+01  1.00800000E+00
  1.00800000E+00  1.60000000E+01  1.00800000E+00  1.00800000E+00  1.60000000E+01
  1.00800000E+00  1.00800000E+00  1.60000000E+01  1.00800000E+00  1.00800000E+00
  1.60000000E+01  1.00800000E+00  1.00800000E+00  1.60000000E+01  1.00800000E+00
  1.00800000E+00  1.60000000E+01  1.00800000E+00  1.00800000E+00  1.60000000E+01
  1.00800000E+00  1.00800000E+00  1.60000000E+01  1.00800000E+00  1.00800000E+00
  1.60000000E+01  1.00800000E+00  1.00800000E+00  1.60000000E+01  1.00800000E+00
  1.00800000E+00  1.60000000E+01  1.00800000E+00  1.00800000E+00  1.60000000E+01
  1.00800000E+00  1.00800000E+00  1.60000000E+01  1.00800000E+00  1.00800000E+00
  1.60000000E+01  1.00800000E+00  1.00800000E+00  1.60000000E+01  1.00800000E+00
  1.00800000E+00  1.60000000E+01  1.00800000E+00  1.00800000E+00  1.60000000E+01
  1.00800000E+00  1.00800000E+00  1.60000000E+01  1.00800000E+00  1.00800000E+00
  1.60000000E+01  1.00800000E+00  1.00800000E+00  1.60000000E+01  1.00800000E+00
  1.00800000E+00  1.60000000E+01  1.00800000E+00  1.00800000E+00  1.60000000E+01
  1.00800000E+00  1.00800000E+00  1.60000000E+01  1.00800000E+00  1.00800000E+00
  1.60000000E+01  1.00800000E+00  1.00800000E+00  1.60000000E+01  1.00800000E+00
  1.00800000E+00  1.60000000E+01  1.00800000E+00  1.00800000E+00  1.60000000E+01
  1.00800000E+00  1.00800000E+00  1.60000000E+01  1.00800000E+00  1.00800000E+00
  1.60000000E+01  1.00800000E+00  1.00800000E+00  1.60000000E+01  1.00800000E+00
  1.00800000E+00  1.60000000E+01  1.00800000E+00  1.00800000E+00  1.60000000E+01
  1.00800000E+00  1.00800000E+00  1.60000000E+01  1.00800000E+00  1.00800000E+00
  1.60000000E+01  1.00800000E+00  1.00800000E+00  1.60000000E+01  1.00800000E+00
  1.00800000E+00  1.60000000E+01  1.00800000E+00  1.00800000E+00  1.60000000E+01
  1.00800000E+00  1.00800000E+00  1.60000000E+01  1.00800000E+00  1.00800000E+00
  1.60000000E+01  1.00800000E+00  1.00800000E+00  1.60000000E+01  1.00800000E+00
  1.00800000E+00  1.60000000E+01  1.00800000E+00  1.00800000E+00  1.60000000E+01
  1.00800000E+00  1.00800000E+00  1.60000000E+01  1.00800000E+00  1.00800000E+00
  1.60000000E+01  1.00800000E+00  1.00800000E+00  1.60000000E+01  1.00800000E+00
  1.00800000E+00  1.60000000E+01  1.00800000E+00  1.00800000E+00  1.60000000E+01
  1.00800000E+00  1.00800000E+00  1.60000000E+01  1.00800000E+00  1.00800000E+00
  1.60000000E+01  1.00800000E+00  1.00800000E+00  1.60000000E+01  1.00800000E+00
  1.00800000E+00  1.60000000E+01  1.00800000E+00  1.00800000E+00  1.60000000E+01
  1.00800000E+00  1.00800000E+00  1.60000000E+01  1.00800000E+00  1.00800000E+00
  1.60000000E+01  1.00800000E+00  1.00800000E+00  1.60000000E+01  1.00800000E+00
  1.00800000E+00  1.60000000E+01  1.00800000E+00  1.00800000E+00  1.60000000E+01
  1.00800000E+00  1.00800000E+00  1.60000000E+01  1.00800000E+00  1.00800000E+00
  1.60000000E+01  1.00800000E+00  1.00800000E+00  1.60000000E+01  1.00800000E+00
  1.00800000E+00  1.60000000E+01  1.00800000E+00  1.00800000E+00  1.60000000E+01
  1.00800000E+00  1.00800000E+00  1.60000000E+01  1.00800000E+00  1.00800000E+00
  1.60000000E+01  1.00800000E+00  1.00800000E+00  1.60000000E+01  1.00800000E+00
  1.00800000E+00  1.60000000E+01  1.00800000E+00  1.00800000E+00  1.60000000E+01
  1.00800000E+00  1.00800000E+00  1.60000000E+01  1.00800000E+00  1.00800000E+00
  1.60000000E+01  1.00800000E+00  1.00800000E+00  1.60000000E+01  1.00800000E+00
  1.00800000E+00  1.60000000E+01  1.00800000E+00  1.00800000E+00  1.60000000E+01
  1.00800000E+00  1.00800000E+00  1.60000000E+01  1.00800000E+00  1.00800000E+00
  1.60000000E+01  1.00800000E+00  1.00800000E+00  1.60000000E+01  1.00800000E+00
  1.00800000E+00  1.60000000E+01  1.00800000E+00  1.00800000E+00  1.60000000E+01
  1.00800000E+00  1.00800000E+00  1.60000000E+01  1.00800000E+00  1.00800000E+00
  1.60000000E+01  1.00800000E+00  1.00800000E+00  1.60000000E+01  1.00800000E+00
  1.00800000E+00  1.60000000E+01  1.00800000E+00  1.00800000E+00  1.60000000E+01
  1.00800000E+00  1.00800000E+00  1.60000000E+01  1.00800000E+00  1.00800000E+00
  1.60000000E+01  1.00800000E+00  1.00800000E+00  1.60000000E+01  1.00800000E+00
  1.00800000E+00  1.60000000E+01  1.00800000E+00  1.00800000E+00  1.60000000E+01
  1.00800000E+00  1.00800000E+00  1.60000000E+01  1.00800000E+00  1.00800000E+00
  1.60000000E+01  1.00800000E+00  1.00800000E+00  1.60000000E+01  1.00800000E+00
  1.00800000E+00  1.60000000E+01  1.00800000E+00  1.00800000E+00  1.60000000E+01
  1.00800000E+00  1.00800000E+00  1.60000000E+01  1.00800000E+00  1.00800000E+00
  1.60000000E+01  1.00800000E+00  1.00800000E+00  1.60000000E+01  1.00800000E+00
  1.00800000E+00  1.60000000E+01  1.00800000E+00  1.00800000E+00  1.60000000E+01
  1.00800000E+00  1.00800000E+00  1.60000000E+01  1.00800000E+00  1.00800000E+00
  1.60000000E+01  1.00800000E+00  1.00800000E+00  1.60000000E+01  1.00800000E+00
  1.00800000E+00  1.60000000E+01  1.00800000E+00  1.00800000E+00  1.60000000E+01
  1.00800000E+00  1.00800000E+00  1.60000000E+01  1.00800000E+00  1.00800000E+00
  1.60000000E+01  1.00800000E+00  1.00800000E+00  1.60000000E+01  1.00800000E+00
  1.00800000E+00  1.60000000E+01  1.00800000E+00  1.00800000E+00  1.60000000E+01
  1.00800000E+00  1.00800000E+00  1.60000000E+01  1.00800000E+00  1.00800000E+00
  1.60000000E+01  1.00800000E+00  1.00800000E+00  1.60000000E+01  1.00800000E+00
  1.00800000E+00  1.60000000E+01  1.00800000E+00  1.00800000E+00  1.60000000E+01
  1.00800000E+00  1.00800000E+00  1.60000000E+01  1.00800000E+00  1.00800000E+00
  1.60000000E+01  1.00800000E+00  1.00800000E+00  1.60000000E+01  1.00800000E+00
  1.00800000E+00  1.60000000E+01  1.00800000E+00  1.00800000E+00  1.60000000E+01
  1.00800000E+00  1.00800000E+00  1.60000000E+01  1.00800000E+00  1.00800000E+00
  1.60000000E+01  1.00800000E+00  1.00800000E+00  1.60000000E+01  1.00800000E+00
  1.00800000E+00  1.60000000E+01  1.00800000E+00  1.00800000E+00  1.60000000E+01
  1.00800000E+00  1.00800000E+00  1.60000000E+01  1.00800000E+00  1.00800000E+00
  1.60000000E+01  1.00800000E+00  1.00800000E+00  1.60000000E+01  1.00800000E+00
  1.00800000E+00  1.60000000E+01  1.00800000E+00  1.00800000E+00  1.60000000E+01
  1.00800000E+00  1.00800000E+00  1.60000000E+01  1.00800000E+00  1.00800000E+00
  1.60000000E+01  1.00800000E+00  1.00800000E+00  1.60000000E+01  1.00800000E+00
  1.00800000E+00  1.60000000E+01  1.00800000E+00  1.00800000E+00  1.60000000E+01
  1.00800000E+00  1.00800000E+00  1.60000000E+01  1.00800000E+00  1.00800000E+00
  1.60000000E+01  1.00800000E+00  1.00800000E+00  1.60000000E+01  1.00800000E+00
  1.00800000E+00  1.60000000E+01  1.00800000E+00  1.00800000E+00  1.60000000E+01
  1.00800000E+00  1.00800000E+00  1.60000000E+01  1.00800000E+00  1.00800000E+00
  1.60000000E+01  1.00800000E+00  1.00800000E+00  1.60000000E+01  1.00800000E+00
  1.00800000E+00  1.60000000E+01  1.00800000E+00  1.00800000E+00  1.60000000E+01
  1.00800000E+00  1.00800000E+00  1.60000000E+01  1.00800000E+00  1.00800000E+00
  1.60000000E+01  1.00800000E+00  1.00800000E+00  1.60000000E+01  1.00800000E+00
  1.00800000E+00  1.60000000E+01  1.00800000E+00  1.00800000E+00  1.60000000E+01
  1.00800000E+00  1.00800000E+00  1.60000000E+01  1.00800000E+00  1.00800000E+00
  1.60000000E+01  1.00800000E+00  1.00800000E+00  1.60000000E+01  1.00800000E+00
  1.00800000E+00  1.60000000E+01  1.00800000E+00  1.00800000E+00  1.60000000E+01
  1.00800000E+00  1.00800000E+00  1.60000000E+01  1.00800000E+00  1.00800000E+00
  1.60000000E+01  1.00800000E+00  1.00800000E+00  1.60000000E+01  1.00800000E+00
  1.00800000E+00  1.60000000E+01  1.00800000E+00  1.00800000E+00  1.60000000E+01
  1.00800000E+00  1.00800000E+00  1.60000000E+01  1.00800000E+00  1.00800000E+00
  1.60000000E+01  1.00800000E+00  1.00800000E+00  1.60000000E+01  1.00800000E+00
  1.00800000E+00  1.60000000E+01  1.00800000E+00  1.00800000E+00  1.60000000E+01
  1.00800000E+00  1.00800000E+00  1.60000000E+01  1.00800000E+00  1.00800000E+00
  1.60000000E+01  1.00800000E+00  1.00800000E+00  1.60000000E+01  1.00800000E+00
  1.00800000E+00  1.60000000E+01  1.00800000E+00  1.00800000E+00  1.60000000E+01
  1.00800000E+00  1.00800000E+00  1.60000000E+01  1.00800000E+00  1.00800000E+00
  1.60000000E+01  1.00800000E+00  1.00800000E+00  1.60000000E+01  1.00800000E+00
  1.00800000E+00  1.60000000E+01  1.00800000E+00  1.00800000E+00  1.60000000E+01
  1.00800000E+00  1.00800000E+00  1.60000000E+01  1.00800000E+00  1.00800000E+00
  1.60000000E+01  1.00800000E+00  1.00800000E+00  1.60000000E+01  1.00800000E+00
  1.00800000E+00  1.60000000E+01  1.00800000E+00  1.00800000E+00  1.60000000E+01
  1.00800000E+00  1.00800000E+00  1.60000000E+01  1.00800000E+00  1.00800000E+00
  1.60000000E+01  1.00800000E+00  1.00800000E+00  1.60000000E+01  1.00800000E+00
  1.00800000E+00  1.60000000E+01  1.00800000E+00  1.00800000E+00  1.60000000E+01
  1.00800000E+00  1.00800000E+00  1.60000000E+01  1.00800000E+00  1.00800000E+00
  1.60000000E+01  1.00800000E+00  1.00800000E+00  1.60000000E+01  1.00800000E+00
  1.00800000E+00  1.60000000E+01  1.00800000E+00  1.00800000E+00  1.60000000E+01
  1.00800000E+00  1.00800000E+00  1.60000000E+01  1.00800000E+00  1.00800000E+00
  1.60000000E+01  1.00800000E+00  1.00800000E+00  1.60000000E+01  1.00800000E+00
  1.00800000E+00  1.60000000E+01  1.00800000E+00  1.00800000E+00  1.60000000E+01
  1.00800000E+00  1.00800000E+00  1.60000000E+01  1.00800000E+00  1.00800000E+00
  1.60000000E+01  1.00800000E+00  1.00800000E+00  1.60000000E+01  1.00800000E+00
  1.00800000E+00  1.60000000E+01  1.00800000E+00  1.00800000E+00  1.60000000E+01
  1.00800000E+00  1.00800000E+00  1.60000000E+01  1.00800000E+00  1.00800000E+00
  1.60000000E+01  1.00800000E+00  1.00800000E+00  1.60000000E+01  1.00800000E+00
  1.00800000E+00  1.60000000E+01  1.00800000E+00  1.00800000E+00  1.60000000E+01
  1.00800000E+00  1.00800000E+00  1.60000000E+01  1.00800000E+00  1.00800000E+00
  1.60000000E+01  1.00800000E+00  1.00800000E+00  1.60000000E+01  1.00800000E+00
  1.00800000E+00  1.60000000E+01  1.00800000E+00  1.00800000E+00  1.60000000E+01
  1.00800000E+00  1.00800000E+00  1.60000000E+01  1.00800000E+00  1.00800000E+00
  1.60000000E+01  1.00800000E+00  1.00800000E+00  1.60000000E+01  1.00800000E+00
  1.00800000E+00  1.60000000E+01  1.00800000E+00  1.00800000E+00  1.60000000E+01
  1.00800000E+00  1.00800000E+00  1.60000000E+01  1.00800000E+00  1.00800000E+00
  1.60000000E+01  1.00800000E+00  1.00800000E+00  1.60000000E+01  1.00800000E+00
  1.00800000E+00  1.60000000E+01  1.00800000E+00  1.00800000E+00  1.60000000E+01
  1.00800000E+00  1.00800000E+00  1.60000000E+01  1.00800000E+00  1.00800000E+00
  1.60000000E+01  1.00800000E+00  1.00800000E+00  1.60000000E+01  1.00800000E+00
  1.00800000E+00  1.60000000E+01  1.00800000E+00  1.00800000E+00  1.60000000E+01
  1.00800000E+00  1.00800000E+00  1.60000000E+01  1.00800000E+00  1.00800000E+00
  1.60000000E+01  1.00800000E+00  1.00800000E+00  1.60000000E+01  1.00800000E+00
  1.00800000E+00  1.60000000E+01  1.00800000E+00  1.00800000E+00  1.60000000E+01
  1.00800000E+00  1.00800000E+00  1.60000000E+01  1.00800000E+00  1.00800000E+00
  1.60000000E+01  1.00800000E+00  1.00800000E+00  1.60000000E+01  1.00800000E+00
  1.00800000E+00  1.60000000E+01  1.00800000E+00  1.00800000E+00  1.60000000E+01
  1.00800000E+00  1.00800000E+00  1.60000000E+01  1.00800000E+00  1.00800000E+00
  1.60000000E+01  1.00800000E+00  1.00800000E+00  1.60000000E+01  1.00800000E+00
  1.00800000E+00  1.60000000E+01  1.00800000E+00  1.00800000E+00  1.60000000E+01
  1.00800000E+00  1.00800000E+00  1.60000000E+01  1.00800000E+00  1.00800000E+00
  1.60000000E+01  1.00800000E+00  1.00800000E+00  1.60000000E+01  1.00800000E+00
  1.00800000E+00  1.60000000E+01  1.00800000E+00  1.00800000E+00  1.60000000E+01
  1.00800000E+00  1.00800000E+00  1.60000000E+01  1.00800000E+00  1.00800000E+00
  1.60000000E+01  1.00800000E+00  1.00800000E+00  1.60000000E+01  1.00800000E+00
  1.00800000E+00  1.60000000E+01  1.00800000E+00  1.00800000E+00  1.60000000E+01
  1.00800000E+00  1.00800000E+00  1.60000000E+01  1.00800000E+00  1.00800000E+00
  1.60000000E+01  1.00800000E+00  1.00800000E+00  1.60000000E+01  1.00800000E+00
  1.00800000E+00  1.60000000E+01  1.00800000E+00  1.00800000E+00  1.60000000E+01
  1.00800000E+00  1.00800000E+00  1.60000000E+01  1.00800000E+00  1.00800000E+00
  1.60000000E+01  1.00800000E+00  1.00800000E+00  1.60000000E+01  1.00800000E+00
  1.00800000E+00  1.60000000E+01  1.00800000E+00  1.00800000E+00  1.60000000E+01
  1.00800000E+00  1.00800000E+00  1.60000000E+01  1.00800000E+00  1.00800000E+00
  1.60000000E+01  1.00800000E+00  1.00800000E+00  1.60000000E+01  1.00800000E+00
  1.00800000E+00  1.60000000E+01  1.00800000E+00  1.00800000E+00  1.60000000E+01
  1.00800000E+00  1.00800000E+00  1.60000000E+01  1.00800000E+00  1.00800000E+00
  1.60000000E+01  1.00800000E+00  1.00800000E+00  1.60000000E+01  1.00800000E+00
  1.00800000E+00  1.60000000E+01  1.00800000E+00  1.00800000E+00  1.60000000E+01
  1.00800000E+00  1.00800000E+00  1.60000000E+01  1.00800000E+00  1.00800000E+00
  1.60000000E+01  1.00800000E+00  1.00800000E+00  1.60000000E+01  1.00800000E+00
  1.00800000E+00  1.60000000E+01  1.00800000E+00  1.00800000E+00  1.60000000E+01
  1.00800000E+00  1.00800000E+00  1.60000000E+01  1.00800000E+00  1.00800000E+00
  1.60000000E+01  1.00800000E+00  1.00800000E+00  1.60000000E+01  1.00800000E+00
  1.00800000E+00  1.60000000E+01  1.00800000E+00  1.00800000E+00  1.60000000E+01
  1.00800000E+00  1.00800000E+00  1.60000000E+01  1.00800000E+00  1.00800000E+00
  1.60000000E+01  1.00800000E+00  1.00800000E+00  1.60000000E+01  1.00800000E+00
  1.00800000E+00  1.60000000E+01  1.00800000E+00  1.00800000E+00  1.60000000E+01
  1.00800000E+00  1.00800000E+00  1.60000000E+01  1.00800000E+00  1.00800000E+00
  1.60000000E+01  1.00800000E+00  1.00800000E+00  1.60000000E+01  1.00800000E+00
  1.00800000E+00  1.60000000E+01  1.00800000E+00  1.00800000E+00  1.60000000E+01
  1.00800000E+00  1.00800000E+00  1.60000000E+01  1.00800000E+00  1.00800000E+00
  1.60000000E+01  1.00800000E+00  1.00800000E+00  1.60000000E+01  1.00800000E+00
  1.00800000E+00  1.60000000E+01  1.00800000E+00  1.00800000E+00  1.60000000E+01
  1.00800000E+00  1.00800000E+00  1.60000000E+01  1.00800000E+00  1.00800000E+00
  1.60000000E+01  1.00800000E+00  1.00800000E+00  1.60000000E+01  1.00800000E+00
  1.00800000E+00  1.60000000E+01  1.00800000E+00  1.00800000E+00  1.60000000E+01
  1.00800000E+00  1.00800000E+00  1.60000000E+01  1.00800000E+00  1.00800000E+00
  1.60000000E+01  1.00800000E+00  1.00800000E+00  1.60000000E+01  1.00800000E+00
  1.00800000E+00  1.60000000E+01  1.00800000E+00  1.00800000E+00  1.60000000E+01
  1.00800000E+00  1.00800000E+00  1.60000000E+01  1.00800000E+00  1.00800000E+00
  1.60000000E+01  1.00800000E+00  1.00800000E+00  1.60000000E+01  1.00800000E+00
  1.00800000E+00  1.60000000E+01  1.00800000E+00  1.00800000E+00  1.60000000E+01
  1.00800000E+00  1.00800000E+00  1.60000000E+01  1.00800000E+00  1.00800000E+00
  1.60000000E+01  1.00800000E+00  1.00800000E+00  1.60000000E+01  1.00800000E+00
  1.00800000E+00  1.60000000E+01  1.00800000E+00  1.00800000E+00  1.60000000E+01
  1.00800000E+00  1.00800000E+00  1.60000000E+01  1.00800000E+00  1.00800000E+00
  1.60000000E+01  1.00800000E+00  1.00800000E+00  1.60000000E+01  1.00800000E+00
  1.00800000E+00  1.60000000E+01  1.00800000E+00  1.00800000E+00  1.60000000E+01
  1.00800000E+00  1.00800000E+00  1.60000000E+01  1.00800000E+00  1.00800000E+00
  1.60000000E+01  1.00800000E+00  1.00800000E+00  1.60000000E+01  1.00800000E+00
  1.00800000E+00  1.60000000E+01  1.00800000E+00  1.00800000E+00  1.60000000E+01
  1.00800000E+00  1.00800000E+00  1.60000000E+01  1.00800000E+00  1.00800000E+00
  1.60000000E+01  1.00800000E+00  1.00800000E+00  1.60000000E+01  1.00800000E+00
  1.00800000E+00  1.60000000E+01  1.00800000E+00  1.00800000E+00  1.60000000E+01
  1.00800000E+00  1.00800000E+00  1.60000000E+01  1.00800000E+00  1.00800000E+00
  1.60000000E+01  1.00800000E+00  1.00800000E+00  1.60000000E+01  1.00800000E+00
  1.00800000E+00  1.60000000E+01  1.00800000E+00  1.00800000E+00  1.60000000E+01
  1.00800000E+00  1.00800000E+00  1.60000000E+01  1.00800000E+00  1.00800000E+00
  1.60000000E+01  1.00800000E+00  1.00800000E+00  1.60000000E+01  1.00800000E+00
  1.00800000E+00  1.60000000E+01  1.00800000E+00  1.00800000E+00  1.60000000E+01
  1.00800000E+00  1.00800000E+00  1.60000000E+01  1.00800000E+00  1.00800000E+00
  1.60000000E+01  1.00800000E+00  1.00800000E+00  1.60000000E+01  1.00800000E+00
  1.00800000E+00  1.60000000E+01  1.00800000E+00  1.00800000E+00  1.60000000E+01
  1.00800000E+00  1.00800000E+00  1.60000000E+01  1.00800000E+00  1.00800000E+00
  1.60000000E+01  1.00800000E+00  1.00800000E+00  1.60000000E+01  1.00800000E+00
  1.00800000E+00  1.60000000E+01  1.00800000E+00  1.00800000E+00  1.60000000E+01
  1.00800000E+00  1.00800000E+00  1.60000000E+01  1.00800000E+00  1.00800000E+00
  1.60000000E+01  1.00800000E+00  1.00800000E+00  1.60000000E+01  1.00800000E+00
  1.00800000E+00  1.60000000E+01  1.00800000E+00  1.00800000E+00  1.60000000E+01
  1.00800000E+00  1.00800000E+00  1.60000000E+01  1.00800000E+00  1.00800000E+00
  1.60000000E+01  1.00800000E+00  1.00800000E+00  1.60000000E+01  1.00800000E+00
  1.00800000E+00  1.60000000E+01  1.00800000E+00  1.00800000E+00  1.60000000E+01
  1.00800000E+00  1.00800000E+00  1.60000000E+01  1.00800000E+00  1.00800000E+00
  1.60000000E+01  1.00800000E+00  1.00800000E+00  1.60000000E+01  1.00800000E+00
  1.00800000E+00  1.60000000E+01  1.00800000E+00  1.00800000E+00  1.60000000E+01
  1.00800000E+00  1.00800000E+00  1.60000000E+01  1.00800000E+00  1.00800000E+00
  1.60000000E+01  1.00800000E+00  1.00800000E+00  1.60000000E+01  1.00800000E+00
  1.00800000E+00  1.60000000E+01  1.00800000E+00  1.00800000E+00  1.60000000E+01
  1.00800000E+00  1.00800000E+00  1.60000000E+01  1.00800000E+00  1.00800000E+00
  1.60000000E+01  1.00800000E+00  1.00800000E+00  1.60000000E+01  1.00800000E+00
  1.00800000E+00  1.60000000E+01  1.00800000E+00  1.00800000E+00  1.60000000E+01
  1.00800000E+00  1.00800000E+00  1.60000000E+01  1.00800000E+00  1.00800000E+00
  1.60000000E+01  1.00800000E+00  1.00800000E+00  1.60000000E+01  1.00800000E+00
  1.00800000E+00  1.60000000E+01  1.00800000E+00  1.00800000E+00  1.60000000E+01
  1.00800000E+00  1.00800000E+00  1.60000000E+01  1.00800000E+00  1.00800000E+00
  1.60000000E+01  1.00800000E+00  1.00800000E+00  1.60000000E+01  1.00800000E+00
  1.00800000E+00  1.60000000E+01  1.00800000E+00  1.00800000E+00  1.60000000E+01
  1.00800000E+00  1.00800000E+00  1.60000000E+01  1.00800000E+00  1.00800000E+00
  1.60000000E+01  1.00800000E+00  1.00800000E+00  1.60000000E+01  1.00800000E+00
  1.00800000E+00  1.60000000E+01  1.00800000E+00  1.00800000E+00  1.60000000E+01
  1.00800000E+00  1.00800000E+00  1.60000000E+01  1.00800000E+00  1.00800000E+00
  1.60000000E+01  1.00800000E+00  1.00800000E+00  1.60000000E+01  1.00800000E+00
  1.00800000E+00  1.60000000E+01  1.00800000E+00  1.00800000E+00  1.60000000E+01
  1.00800000E+00  1.00800000E+00  1.60000000E+01  1.00800000E+00  1.00800000E+00
  1.60000000E+01  1.00800000E+00  1.00800000E+00  1.60000000E+01  1.00800000E+00
  1.00800000E+00  1.60000000E+01  1.00800000E+00  1.00800000E+00  1.60000000E+01
  1.00800000E+00  1.00800000E+00  1.60000000E+01  1.00800000E+00  1.00800000E+00
  1.60000000E+01  1.00800000E+00  1.00800000E+00  1.60000000E+01  1.00800000E+00
  1.00800000E+00  1.60000000E+01  1.00800000E+00  1.00800000E+00  1.60000000E+01
  1.00800000E+00  1.00800000E+00  1.60000000E+01  1.00800000E+00  1.00800000E+00
  1.60000000E+01  1.00800000E+00  1.00800000E+00  1.60000000E+01  1.00800000E+00
  1.00800000E+00  1.60000000E+01  1.00800000E+00  1.00800000E+00  1.60000000E+01
  1.00800000E+00  1.00800000E+00  1.60000000E+01  1.00800000E+00  1.00800000E+00
  1.60000000E+01  1.00800000E+00  1.00800000E+00  1.60000000E+01  1.00800000E+00
  1.00800000E+00  1.60000000E+01  1.00800000E+00  1.00800000E+00  1.60000000E+01
  1.00800000E+00  1.00800000E+00  1.60000000E+01  1.00800000E+00  1.00800000E+00
  1.60000000E+01  1.00800000E+00  1.00800000E+00  1.60000000E+01  1.00800000E+00
  1.00800000E+00  1.60000000E+01  1.00800000E+00  1.00800000E+00  1.60000000E+01
  1.00800000E+00  1.00800000E+00  1.60000000E+01  1.00800000E+00  1.00800000E+00
  1.60000000E+01  1.00800000E+00  1.00800000E+00  1.60000000E+01  1.00800000E+00
  1.00800000E+00  1.60000000E+01  1.00800000E+00  1.00800000E+00  1.60000000E+01
  1.00800000E+00  1.00800000E+00  1.60000000E+01  1.00800000E+00  1.00800000E+00
  1.60000000E+01  1.00800000E+00  1.00800000E+00  1.60000000E+01  1.00800000E+00
  1.00800000E+00  1.60000000E+01  1.00800000E+00  1.00800000E+00  1.60000000E+01
  1.00800000E+00  1.00800000E+00  1.60000000E+01  1.00800000E+00  1.00800000E+00
  1.60000000E+01  1.00800000E+00  1.00800000E+00  1.60000000E+01  1.00800000E+00
  1.00800000E+00  1.60000000E+01  1.00800000E+00  1.00800000E+00  1.60000000E+01
  1.00800000E+00  1.00800000E+00  1.60000000E+01  1.00800000E+00  1.00800000E+00
  1.60000000E+01  1.00800000E+00  1.00800000E+00  1.60000000E+01  1.00800000E+00
  1.00800000E+00  1.60000000E+01  1.00800000E+00  1.00800000E+00  1.60000000E+01
  1.00800000E+00  1.00800000E+00  1.60000000E+01  1.00800000E+00  1.00800000E+00
  1.60000000E+01  1.00800000E+00  1.00800000E+00  1.60000000E+01  1.00800000E+00
  1.00800000E+00  1.60000000E+01  1.00800000E+00  1.00800000E+00  1.60000000E+01
  1.00800000E+00  1.00800000E+00  1.60000000E+01  1.00800000E+00  1.00800000E+00
  1.60000000E+01  1.00800000E+00  1.00800000E+00  1.60000000E+01  1.00800000E+00
  1.00800000E+00  1.60000000E+01  1.00800000E+00  1.00800000E+00  1.60000000E+01
  1.00800000E+00  1.00800000E+00  1.60000000E+01  1.00800000E+00  1.00800000E+00
  1.60000000E+01  1.00800000E+00  1.00800000E+00  1.60000000E+01  1.00800000E+00
  1.00800000E+00  1.60000000E+01  1.00800000E+00  1.00800000E+00  1.60000000E+01
  1.00800000E+00  1.00800000E+00  1.60000000E+01  1.00800000E+00  1.00800000E+00
  1.60000000E+01  1.00800000E+00  1.00800000E+00  1.60000000E+01  1.00800000E+00
  1.00800000E+00  1.60000000E+01  1.00800000E+00  1.00800000E+00  1.60000000E+01
  1.00800000E+00  1.00800000E+00  1.60000000E+01  1.00800000E+00  1.00800000E+00
  1.60000000E+01  1.00800000E+00  1.00800000E+00  1.60000000E+01  1.00800000E+00
  1.00800000E+00  1.60000000E+01  1.00800000E+00  1.00800000E+00  1.60000000E+01
  1.00800000E+00  1.00800000E+00  1.60000000E+01  1.00800000E+00  1.00800000E+00
  1.60000000E+01  1.00800000E+00  1.00800000E+00  1.60000000E+01  1.00800000E+00
  1.00800000E+00  1.60000000E+01  1.00800000E+00  1.00800000E+00  1.60000000E+01
  1.00800000E+00  1.00800000E+00  1.60000000E+01  1.00800000E+00  1.00800000E+00
  1.60000000E+01  1.00800000E+00  1.00800000E+00  1.60000000E+01  1.00800000E+00
  1.00800000E+00  1.60000000E+01  1.00800000E+00  1.00800000E+00  1.60000000E+01
  1.00800000E+00  1.00800000E+00  1.60000000E+01  1.00800000E+00  1.00800000E+00
  1.60000000E+01  1.00800000E+00  1.00800000E+00  1.60000000E+01  1.00800000E+00
  1.00800000E+00  1.60000000E+01  1.00800000E+00  1.00800000E+00  1.60000000E+01
  1.00800000E+00  1.00800000E+00  1.60000000E+01  1.00800000E+00  1.00800000E+00
  1.60000000E+01  1.00800000E+00  1.00800000E+00  1.60000000E+01  1.00800000E+00
  1.00800000E+00  1.60000000E+01  1.00800000E+00  1.00800000E+00  1.60000000E+01
  1.00800000E+00  1.00800000E+00  1.60000000E+01  1.00800000E+00  1.00800000E+00
  1.60000000E+01  1.00800000E+00  1.00800000E+00  1.60000000E+01  1.00800000E+00
  1.00800000E+00  1.60000000E+01  1.00800000E+00  1.00800000E+00  1.60000000E+01
  1.00800000E+00  1.00800000E+00  1.60000000E+01  1.00800000E+00  1.00800000E+00
  1.60000000E+01  1.00800000E+00  1.00800000E+00  1.60000000E+01  1.00800000E+00
  1.00800000E+00  1.60000000E+01  1.00800000E+00  1.00800000E+00  1.60000000E+01
  1.00800000E+00  1.00800000E+00  1.60000000E+01  1.00800000E+00  1.00800000E+00
  1.60000000E+01  1.00800000E+00  1.00800000E+00  1.60000000E+01  1.00800000E+00
  1.00800000E+00  1.60000000E+01  1.00800000E+00  1.00800000E+00  1.60000000E+01
  1.00800000E+00  1.00800000E+00  1.60000000E+01  1.00800000E+00  1.00800000E+00
  1.60000000E+01  1.00800000E+00  1.00800000E+00  1.60000000E+01  1.00800000E+00
  1.00800000E+00  1.60000000E+01  1.00800000E+00  1.00800000E+00  1.60000000E+01
  1.00800000E+00  1.00800000E+00  1.60000000E+01  1.00800000E+00  1.00800000E+00
  1.60000000E+01  1.00800000E+00  1.00800000E+00  1.60000000E+01  1.00800000E+00
  1.00800000E+00  1.60000000E+01  1.00800000E+00  1.00800000E+00  1.60000000E+01
  1.00800000E+00  1.00800000E+00  1.60000000E+01  1.00800000E+00  1.00800000E+00
  1.60000000E+01  1.00800000E+00  1.00800000E+00  1.60000000E+01  1.00800000E+00
  1.00800000E+00  1.60000000E+01  1.00800000E+00  1.00800000E+00  1.60000000E+01
  1.00800000E+00  1.00800000E+00  1.60000000E+01  1.00800000E+00  1.00800000E+00
  1.60000000E+01  1.00800000E+00  1.00800000E+00  1.60000000E+01  1.00800000E+00
  1.00800000E+00  1.60000000E+01  1.00800000E+00  1.00800000E+00  1.60000000E+01
  1.00800000E+00  1.00800000E+00  1.60000000E+01  1.00800000E+00  1.00800000E+00
  1.60000000E+01  1.00800000E+00  1.00800000E+00  1.60000000E+01  1.00800000E+00
  1.00800000E+00  1.60000000E+01  1.00800000E+00  1.00800000E+00  1.60000000E+01
  1.00800000E+00  1.00800000E+00  1.60000000E+01  1.00800000E+00  1.00800000E+00
  1.60000000E+01  1.00800000E+00  1.00800000E+00  1.60000000E+01  1.00800000E+00
  1.00800000E+00  1.60000000E+01  1.00800000E+00  1.00800000E+00  1.60000000E+01
  1.00800000E+00  1.00800000E+00  1.60000000E+01  1.00800000E+00  1.00800000E+00
  1.60000000E+01  1.00800000E+00  1.00800000E+00  1.60000000E+01  1.00800000E+00
  1.00800000E+00  1.60000000E+01  1.00800000E+00  1.00800000E+00  1.60000000E+01
  1.00800000E+00  1.00800000E+00  1.60000000E+01  1.00800000E+00  1.00800000E+00
  1.60000000E+01  1.00800000E+00  1.00800000E+00  1.60000000E+01  1.00800000E+00
  1.00800000E+00  1.60000000E+01  1.00800000E+00  1.00800000E+00  1.60000000E+01
  1.00800000E+00  1.00800000E+00  1.60000000E+01  1.00800000E+00  1.00800000E+00
  1.60000000E+01  1.00800000E+00  1.00800000E+00  1.60000000E+01  1.00800000E+00
  1.00800000E+00  1.60000000E+01  1.00800000E+00  1.00800000E+00  1.60000000E+01
  1.00800000E+00  1.00800000E+00  1.60000000E+01  1.00800000E+00  1.00800000E+00
  1.60000000E+01  1.00800000E+00  1.00800000E+00  1.60000000E+01  1.00800000E+00
  1.00800000E+00  1.60000000E+01  1.00800000E+00  1.00800000E+00  1.60000000E+01
  1.00800000E+00  1.00800000E+00  1.60000000E+01  1.00800000E+00  1.00800000E+00
  1.60000000E+01  1.00800000E+00  1.00800000E+00  1.60000000E+01  1.00800000E+00
  1.00800000E+00  1.60000000E+01  1.00800000E+00  1.00800000E+00  1.60000000E+01
  1.00800000E+00  1.00800000E+00  1.60000000E+01  1.00800000E+00  1.00800000E+00
  1.60000000E+01  1.00800000E+00  1.00800000E+00  1.60000000E+01  1.00800000E+00
  1.00800000E+00  1.60000000E+01  1.00800000E+00  1.00800000E+00  1.60000000E+01
  1.00800000E+00  1.00800000E+00  1.60000000E+01  1.00800000E+00  1.00800000E+00
  1.60000000E+01  1.00800000E+00  1.00800000E+00  1.60000000E+01  1.00800000E+00
  1.00800000E+00  1.60000000E+01  1.00800000E+00  1.00800000E+00  1.60000000E+01
  1.00800000E+00  1.00800000E+00  1.60000000E+01  1.00800000E+00  1.00800000E+00
  1.60000000E+01  1.00800000E+00  1.00800000E+00  1.60000000E+01  1.00800000E+00
  1.00800000E+00  1.60000000E+01  1.00800000E+00  1.00800000E+00  1.60000000E+01
  1.00800000E+00  1.00800000E+00  1.60000000E+01  1.00800000E+00  1.00800000E+00
  1.60000000E+01  1.00800000E+00  1.00800000E+00  1.60000000E+01  1.00800000E+00
  1.00800000E+00  1.60000000E+01  1.00800000E+00  1.00800000E+00  1.60000000E+01
  1.00800000E+00  1.00800000E+00  1.60000000E+01  1.00800000E+00  1.00800000E+00
  1.60000000E+01  1.00800000E+00  1.00800000E+00  1.60000000E+01  1.00800000E+00
  1.00800000E+00  1.60000000E+01  1.00800000E+00  1.00800000E+00  1.60000000E+01
  1.00800000E+00  1.00800000E+00  1.60000000E+01  1.00800000E+00  1.00800000E+00
  1.60000000E+01  1.00800000E+00  1.00800000E+00  1.60000000E+01  1.00800000E+00
  1.00800000E+00  1.60000000E+01  1.00800000E+00  1.00800000E+00  1.60000000E+01
  1.00800000E+00  1.00800000E+00  1.60000000E+01  1.00800000E+00  1.00800000E+00
  1.60000000E+01  1.00800000E+00  1.00800000E+00  1.60000000E+01  1.00800000E+00
  1.00800000E+00  1.60000000E+01  1.00800000E+00  1.00800000E+00  1.60000000E+01
  1.00800000E+00  1.00800000E+00  1.60000000E+01  1.00800000E+00  1.00800000E+00
  1.60000000E+01  1.00800000E+00  1.00800000E+00  1.60000000E+01  1.00800000E+00
  1.00800000E+00  1.60000000E+01  1.00800000E+00  1.00800000E+00  1.60000000E+01
  1.00800000E+00  1.00800000E+00  1.60000000E+01  1.00800000E+00  1.00800000E+00
  1.60000000E+01  1.00800000E+00  1.00800000E+00  1.60000000E+01  1.00800000E+00
  1.00800000E+00  1.60000000E+01  1.00800000E+00  1.00800000E+00  1.60000000E+01
  1.00800000E+00  1.00800000E+00  1.60000000E+01  1.00800000E+00  1.00800000E+00
  1.60000000E+01  1.00800000E+00  1.00800000E+00  1.60000000E+01  1.00800000E+00
  1.00800000E+00  1.60000000E+01  1.00800000E+00  1.00800000E+00  1.60000000E+01
  1.00800000E+00  1.00800000E+00  1.60000000E+01  1.00800000E+00  1.00800000E+00
  1.60000000E+01  1.00800000E+00  1.00800000E+00  1.60000000E+01  1.00800000E+00
  1.00800000E+00  1.60000000E+01  1.00800000E+00  1.00800000E+00  1.60000000E+01
  1.00800000E+00  1.00800000E+00  1.60000000E+01  1.00800000E+00  1.00800000E+00
  1.60000000E+01  1.00800000E+00  1.00800000E+00  1.60000000E+01  1.00800000E+00
  1.00800000E+00  1.60000000E+01  1.00800000E+00  1.00800000E+00  1.60000000E+01
  1.00800000E+00  1.00800000E+00  1.60000000E+01  1.00800000E+00  1.00800000E+00
  1.60000000E+01  1.00800000E+00  1.00800000E+00  1.60000000E+01  1.00800000E+00
  1.00800000E+00  1.60000000E+01  1.00800000E+00  1.00800000E+00  1.60000000E+01
  1.00800000E+00  1.00800000E+00  1.60000000E+01  1.00800000E+00  1.00800000E+00
  1.60000000E+01  1.00800000E+00  1.00800000E+00  1.60000000E+01  1.00800000E+00
  1.00800000E+00  1.60000000E+01  1.00800000E+00  1.00800000E+00  1.60000000E+01
  1.00800000E+00  1.00800000E+00  1.60000000E+01  1.00800000E+00  1.00800000E+00
  1.60000000E+01  1.00800000E+00  1.00800000E+00  1.60000000E+01  1.00800000E+00
  1.00800000E+00  1.60000000E+01  1.00800000E+00  1.00800000E+00  1.60000000E+01
  1.00800000E+00  1.00800000E+00  1.60000000E+01  1.00800000E+00  1.00800000E+00
  1.60000000E+01  1.00800000E+00  1.00800000E+00  1.60000000E+01  1.00800000E+00
  1.00800000E+00  1.60000000E+01  1.00800000E+00  1.00800000E+00  1.60000000E+01
  1.00800000E+00  1.00800000E+00  1.60000000E+01  1.00800000E+00  1.00800000E+00
  1.60000000E+01  1.00800000E+00  1.00800000E+00  1.60000000E+01  1.00800000E+00
  1.00800000E+00  1.60000000E+01  1.00800000E+00  1.00800000E+00  1.60000000E+01
  1.00800000E+00  1.00800000E+00  1.60000000E+01  1.00800000E+00  1.00800000E+00
  1.60000000E+01  1.00800000E+00  1.00800000E+00  1.60000000E+01  1.00800000E+00
  1.00800000E+00  1.60000000E+01  1.00800000E+00  1.00800000E+00  1.60000000E+01
  1.00800000E+00  1.00800000E+00  1.60000000E+01  1.00800000E+00  1.00800000E+00
  1.60000000E+01  1.00800000E+00  1.00800000E+00  1.60000000E+01  1.00800000E+00
  1.00800000E+00  1.60000000E+01  1.00800000E+00  1.00800000E+00  1.60000000E+01
  1.00800000E+00  1.00800000E+00  1.60000000E+01  1.00800000E+00  1.00800000E+00
  1.60000000E+01  1.00800000E+00  1.00800000E+00  1.60000000E+01  1.00800000E+00
  1.00800000E+00  1.60000000E+01  1.00800000E+00  1.00800000E+00  1.60000000E+01
  1.00800000E+00  1.00800000E+00  1.60000000E+01  1.00800000E+00  1.00800000E+00
  1.60000000E+01  1.00800000E+00  1.00800000E+00  1.60000000E+01  1.00800000E+00
  1.00800000E+00  1.60000000E+01  1.00800000E+00  1.00800000E+00  1.60000000E+01
  1.00800000E+00  1.00800000E+00  1.60000000E+01  1.00800000E+00  1.00800000E+00
  1.60000000E+01  1.00800000E+00  1.00800000E+00  1.60000000E+01  1.00800000E+00
  1.00800000E+00  1.60000000E+01  1.00800000E+00  1.00800000E+00  1.60000000E+01
  1.00800000E+00  1.00800000E+00  1.60000000E+01  1.00800000E+00  1.00800000E+00
  1.60000000E+01  1.00800000E+00  1.00800000E+00  1.60000000E+01  1.00800000E+00
  1.00800000E+00  1.60000000E+01  1.00800000E+00  1.00800000E+00  1.60000000E+01
  1.00800000E+00  1.00800000E+00  1.60000000E+01  1.00800000E+00  1.00800000E+00
  1.60000000E+01  1.00800000E+00  1.00800000E+00  1.60000000E+01  1.00800000E+00
  1.00800000E+00  1.60000000E+01  1.00800000E+00  1.00800000E+00  1.60000000E+01
  1.00800000E+00  1.00800000E+00  1.60000000E+01  1.00800000E+00  1.00800000E+00
  1.60000000E+01  1.00800000E+00  1.00800000E+00  1.60000000E+01  1.00800000E+00
  1.00800000E+00  1.60000000E+01  1.00800000E+00  1.00800000E+00  1.60000000E+01
  1.00800000E+00  1.00800000E+00  1.60000000E+01  1.00800000E+00  1.00800000E+00
  1.60000000E+01  1.00800000E+00  1.00800000E+00  1.60000000E+01  1.00800000E+00
  1.00800000E+00  1.60000000E+01  1.00800000E+00  1.00800000E+00  1.60000000E+01
  1.00800000E+00  1.00800000E+00  1.60000000E+01  1.00800000E+00  1.00800000E+00
  1.60000000E+01  1.00800000E+00  1.00800000E+00  1.60000000E+01  1.00800000E+00
  1.00800000E+00  1.60000000E+01  1.00800000E+00  1.00800000E+00  1.60000000E+01
  1.00800000E+00  1.00800000E+00  1.60000000E+01  1.00800000E+00  1.00800000E+00
  1.60000000E+01  1.00800000E+00  1.00800000E+00  1.60000000E+01  1.00800000E+00
  1.00800000E+00  1.60000000E+01  1.00800000E+00  1.00800000E+00  1.60000000E+01
  1.00800000E+00  1.00800000E+00  1.60000000E+01  1.00800000E+00  1.00800000E+00
  1.60000000E+01  1.00800000E+00  1.00800000E+00  1.60000000E+01  1.00800000E+00
  1.00800000E+00  1.60000000E+01  1.00800000E+00  1.00800000E+00  1.60000000E+01
  1.00800000E+00  1.00800000E+00  1.60000000E+01  1.00800000E+00  1.00800000E+00
  1.60000000E+01  1.00800000E+00  1.00800000E+00  1.60000000E+01  1.00800000E+00
  1.00800000E+00  1.60000000E+01  1.00800000E+00  1.00800000E+00  1.60000000E+01
  1.00800000E+00  1.00800000E+00  1.60000000E+01  1.00800000E+00  1.00800000E+00
  1.60000000E+01  1.00800000E+00  1.00800000E+00  1.60000000E+01  1.00800000E+00
  1.00800000E+00  1.60000000E+01  1.00800000E+00  1.00800000E+00  1.60000000E+01
  1.00800000E+00  1.00800000E+00  1.60000000E+01  1.00800000E+00  1.00800000E+00
  1.60000000E+01  1.00800000E+00  1.00800000E+00  1.60000000E+01  1.00800000E+00
  1.00800000E+00  1.60000000E+01  1.00800000E+00  1.00800000E+00  1.60000000E+01
  1.00800000E+00  1.00800000E+00  1.60000000E+01  1.00800000E+00  1.00800000E+00
  1.60000000E+01  1.00800000E+00  1.00800000E+00  1.60000000E+01  1.00800000E+00
  1.00800000E+00  1.60000000E+01  1.00800000E+00  1.00800000E+00  1.60000000E+01
  1.00800000E+00  1.00800000E+00  1.60000000E+01  1.00800000E+00  1.00800000E+00
  1.60000000E+01  1.00800000E+00  1.00800000E+00  1.60000000E+01  1.00800000E+00
  1.00800000E+00  1.60000000E+01  1.00800000E+00  1.00800000E+00  1.60000000E+01
  1.00800000E+00  1.00800000E+00  1.60000000E+01  1.00800000E+00  1.00800000E+00
  1.60000000E+01  1.00800000E+00  1.00800000E+00  1.60000000E+01  1.00800000E+00
  1.00800000E+00  1.60000000E+01  1.00800000E+00  1.00800000E+00  1.60000000E+01
  1.00800000E+00  1.00800000E+00  1.60000000E+01  1.00800000E+00  1.00800000E+00
  1.60000000E+01  1.00800000E+00  1.00800000E+00  1.60000000E+01  1.00800000E+00
  1.00800000E+00  1.60000000E+01  1.00800000E+00  1.00800000E+00  1.60000000E+01
  1.00800000E+00  1.00800000E+00  1.60000000E+01  1.00800000E+00  1.00800000E+00
  1.60000000E+01  1.00800000E+00  1.00800000E+00  1.60000000E+01  1.00800000E+00
  1.00800000E+00  1.60000000E+01  1.00800000E+00  1.00800000E+00  1.60000000E+01
  1.00800000E+00  1.00800000E+00  1.60000000E+01  1.00800000E+00  1.00800000E+00
  1.60000000E+01  1.00800000E+00  1.00800000E+00  1.60000000E+01  1.00800000E+00
  1.00800000E+00  1.60000000E+01  1.00800000E+00  1.00800000E+00  1.60000000E+01
  1.00800000E+00  1.00800000E+00  1.60000000E+01  1.00800000E+00  1.00800000E+00
  1.60000000E+01  1.00800000E+00  1.00800000E+00  1.60000000E+01  1.00800000E+00
  1.00800000E+00  1.60000000E+01  1.00800000E+00  1.00800000E+00  1.60000000E+01
  1.00800000E+00  1.00800000E+00  1.60000000E+01  1.00800000E+00  1.00800000E+00
  1.60000000E+01  1.00800000E+00  1.00800000E+00  1.60000000E+01  1.00800000E+00
  1.00800000E+00  1.60000000E+01  1.00800000E+00  1.00800000E+00  1.60000000E+01
  1.00800000E+00  1.00800000E+00  1.60000000E+01  1.00800000E+00  1.00800000E+00
  1.60000000E+01  1.00800000E+00  1.00800000E+00  1.60000000E+01  1.00800000E+00
  1.00800000E+00  1.60000000E+01  1.00800000E+00  1.00800000E+00  1.60000000E+01
  1.00800000E+00  1.00800000E+00  1.60000000E+01  1.00800000E+00  1.00800000E+00
  1.60000000E+01  1.00800000E+00  1.00800000E+00  1.60000000E+01  1.00800000E+00
  1.00800000E+00  1.60000000E+01  1.00800000E+00  1.00800000E+00  1.60000000E+01
  1.00800000E+00  1.00800000E+00  1.60000000E+01  1.00800000E+00  1.00800000E+00
  1.60000000E+01  1.00800000E+00  1.00800000E+00  1.60000000E+01  1.00800000E+00
  1.00800000E+00  1.60000000E+01  1.00800000E+00  1.00800000E+00  1.60000000E+01
  1.00800000E+00  1.00800000E+00  1.60000000E+01  1.00800000E+00  1.00800000E+00
  1.60000000E+01  1.00800000E+00  1.00800000E+00  1.60000000E+01  1.00800000E+00
  1.00800000E+00  1.60000000E+01  1.00800000E+00  1.00800000E+00  1.60000000E+01
  1.00800000E+00  1.00800000E+00  1.60000000E+01  1.00800000E+00  1.00800000E+00
  1.60000000E+01  1.00800000E+00  1.00800000E+00  1.60000000E+01  1.00800000E+00
  1.00800000E+00  1.60000000E+01  1.00800000E+00  1.00800000E+00  1.60000000E+01
  1.00800000E+00  1.00800000E+00  1.60000000E+01  1.00800000E+00  1.00800000E+00
  1.60000000E+01  1.00800000E+00  1.00800000E+00  1.60000000E+01  1.00800000E+00
  1.00800000E+00  1.60000000E+01  1.00800000E+00  1.00800000E+00  1.60000000E+01
  1.00800000E+00  1.00800000E+00  1.60000000E+01  1.00800000E+00  1.00800000E+00
  1.60000000E+01  1.00800000E+00  1.00800000E+00  1.60000000E+01  1.00800000E+00
  1.00800000E+00  1.60000000E+01  1.00800000E+00  1.00800000E+00  1.60000000E+01
  1.00800000E+00  1.00800000E+00  1.60000000E+01  1.00800000E+00  1.00800000E+00
  1.60000000E+01  1.00800000E+00  1.00800000E+00  1.60000000E+01  1.00800000E+00
  1.00800000E+00  1.60000000E+01  1.00800000E+00  1.00800000E+00  1.60000000E+01
  1.00800000E+00  1.00800000E+00  1.60000000E+01  1.00800000E+00  1.00800000E+00
  1.60000000E+01  1.00800000E+00  1.00800000E+00  1.60000000E+01  1.00800000E+00
  1.00800000E+00  1.60000000E+01  1.00800000E+00  1.00800000E+00  1.60000000E+01
  1.00800000E+00  1.00800000E+00  1.60000000E+01  1.00800000E+00  1.00800000E+00
  1.60000000E+01  1.00800000E+00  1.00800000E+00  1.60000000E+01  1.00800000E+00
  1.00800000E+00  1.60000000E+01  1.00800000E+00  1.00800000E+00  1.60000000E+01
  1.00800000E+00  1.00800000E+00  1.60000000E+01  1.00800000E+00  1.00800000E+00
  1.60000000E+01  1.00800000E+00  1.00800000E+00  1.60000000E+01  1.00800000E+00
  1.00800000E+00  1.60000000E+01  1.00800000E+00  1.00800000E+00  1.60000000E+01
  1.00800000E+00  1.00800000E+00  1.60000000E+01  1.00800000E+00  1.00800000E+00
  1.60000000E+01  1.00800000E+00  1.00800000E+00  1.60000000E+01  1.00800000E+00
  1.00800000E+00  1.60000000E+01  1.00800000E+00  1.00800000E+00  1.60000000E+01
  1.00800000E+00  1.00800000E+00  1.60000000E+01  1.00800000E+00  1.00800000E+00
  1.60000000E+01  1.00800000E+00  1.00800000E+00  1.60000000E+01  1.00800000E+00
  1.00800000E+00  1.60000000E+01  1.00800000E+00  1.00800000E+00  1.60000000E+01
  1.00800000E+00  1.00800000E+00  1.60000000E+01  1.00800000E+00  1.00800000E+00
  1.60000000E+01  1.00800000E+00  1.00800000E+00  1.60000000E+01  1.00800000E+00
  1.00800000E+00  1.60000000E+01  1.00800000E+00  1.00800000E+00  1.60000000E+01
  1.00800000E+00  1.00800000E+00  1.60000000E+01  1.00800000E+00  1.00800000E+00
  1.60000000E+01  1.00800000E+00  1.00800000E+00  1.60000000E+01  1.00800000E+00
  1.00800000E+00  1.60000000E+01  1.00800000E+00  1.00800000E+00  1.60000000E+01
  1.00800000E+00  1.00800000E+00  1.60000000E+01  1.00800000E+00  1.00800000E+00
  1.60000000E+01  1.00800000E+00  1.00800000E+00  1.60000000E+01  1.00800000E+00
  1.00800000E+00  1.60000000E+01  1.00800000E+00  1.00800000E+00  1.60000000E+01
  1.00800000E+00  1.00800000E+00  1.60000000E+01  1.00800000E+00  1.00800000E+00
  1.60000000E+01  1.00800000E+00  1.00800000E+00  1.60000000E+01  1.00800000E+00
  1.00800000E+00  1.60000000E+01  1.00800000E+00  1.00800000E+00  1.60000000E+01
  1.00800000E+00  1.00800000E+00  1.60000000E+01  1.00800000E+00  1.00800000E+00
  1.60000000E+01  1.00800000E+00  1.00800000E+00  1.60000000E+01  1.00800000E+00
  1.00800000E+00  1.60000000E+01  1.00800000E+00  1.00800000E+00  1.60000000E+01
  1.00800000E+00  1.00800000E+00  1.60000000E+01  1.00800000E+00  1.00800000E+00
  1.60000000E+01  1.00800000E+00  1.00800000E+00  1.60000000E+01  1.00800000E+00
  1.00800000E+00  1.60000000E+01  1.00800000E+00  1.00800000E+00  1.60000000E+01
  1.00800000E+00  1.00800000E+00  1.60000000E+01  1.00800000E+00  1.00800000E+00
  1.60000000E+01  1.00800000E+00  1.00800000E+00  1.60000000E+01  1.00800000E+00
  1.00800000E+00  1.60000000E+01  1.00800000E+00  1.00800000E+00  1.60000000E+01
  1.00800000E+00  1.00800000E+00  1.60000000E+01  1.00800000E+00  1.00800000E+00
  1.60000000E+01  1.00800000E+00  1.00800000E+00  1.60000000E+01  1.00800000E+00
  1.00800000E+00  1.60000000E+01  1.00800000E+00  1.00800000E+00  1.60000000E+01
  1.00800000E+00  1.00800000E+00  1.60000000E+01  1.00800000E+00  1.00800000E+00
  1.60000000E+01  1.00800000E+00  1.00800000E+00  1.60000000E+01  1.00800000E+00
  1.00800000E+00  1.60000000E+01  1.00800000E+00  1.00800000E+00  1.60000000E+01
  1.00800000E+00  1.00800000E+00  1.60000000E+01  1.00800000E+00  1.00800000E+00
  1.60000000E+01  1.00800000E+00  1.00800000E+00  1.60000000E+01  1.00800000E+00
  1.00800000E+00  1.60000000E+01  1.00800000E+00  1.00800000E+00  1.60000000E+01
  1.00800000E+00  1.00800000E+00  1.60000000E+01  1.00800000E+00  1.00800000E+00
  1.60000000E+01  1.00800000E+00  1.00800000E+00  1.60000000E+01  1.00800000E+00
  1.00800000E+00  1.60000000E+01  1.00800000E+00  1.00800000E+00  1.60000000E+01
  1.00800000E+00  1.00800000E+00  1.60000000E+01  1.00800000E+00  1.00800000E+00
  1.60000000E+01  1.00800000E+00  1.00800000E+00  1.60000000E+01  1.00800000E+00
  1.00800000E+00  1.60000000E+01  1.00800000E+00  1.00800000E+00  1.60000000E+01
  1.00800000E+00  1.00800000E+00  1.60000000E+01  1.00800000E+00  1.00800000E+00
  1.60000000E+01  1.00800000E+00  1.00800000E+00  1.60000000E+01  1.00800000E+00
  1.00800000E+00  1.60000000E+01  1.00800000E+00  1.00800000E+00  1.60000000E+01
  1.00800000E+00  1.00800000E+00  1.60000000E+01  1.00800000E+00  1.00800000E+00
  1.60000000E+01  1.00800000E+00  1.00800000E+00  1.60000000E+01  1.00800000E+00
  1.00800000E+00  1.60000000E+01  1.00800000E+00  1.00800000E+00  1.60000000E+01
  1.00800000E+00  1.00800000E+00  1.60000000E+01  1.00800000E+00  1.00800000E+00
  1.60000000E+01  1.00800000E+00  1.00800000E+00  1.60000000E+01  1.00800000E+00
  1.00800000E+00  1.60000000E+01  1.00800000E+00  1.00800000E+00  1.60000000E+01
  1.00800000E+00  1.00800000E+00  1.60000000E+01  1.00800000E+00  1.00800000E+00
  1.60000000E+01  1.00800000E+00  1.00800000E+00  1.60000000E+01  1.00800000E+00
  1.00800000E+00  1.60000000E+01  1.00800000E+00  1.00800000E+00  1.60000000E+01
  1.00800000E+00  1.00800000E+00  1.60000000E+01  1.00800000E+00  1.00800000E+00
  1.60000000E+01  1.00800000E+00  1.00800000E+00  1.60000000E+01  1.00800000E+00
  1.00800000E+00  1.60000000E+01  1.00800000E+00  1.00800000E+00  1.60000000E+01
  1.00800000E+00  1.00800000E+00  1.60000000E+01  1.00800000E+00  1.00800000E+00
  1.60000000E+01  1.00800000E+00  1.00800000E+00  1.60000000E+01  1.00800000E+00
  1.00800000E+00  1.60000000E+01  1.00800000E+00  1.00800000E+00  1.60000000E+01
  1.00800000E+00  1.00800000E+00  1.60000000E+01  1.00800000E+00  1.00800000E+00
  1.60000000E+01  1.00800000E+00  1.00800000E+00  1.60000000E+01  1.00800000E+00
  1.00800000E+00  1.60000000E+01  1.00800000E+00  1.00800000E+00  1.60000000E+01
  1.00800000E+00  1.00800000E+00  1.60000000E+01  1.00800000E+00  1.00800000E+00
  1.60000000E+01  1.00800000E+00  1.00800000E+00  1.60000000E+01  1.00800000E+00
  1.00800000E+00  1.60000000E+01  1.00800000E+00  1.00800000E+00  1.60000000E+01
  1.00800000E+00  1.00800000E+00  1.60000000E+01  1.00800000E+00  1.00800000E+00
  1.60000000E+01  1.00800000E+00  1.00800000E+00  1.60000000E+01  1.00800000E+00
  1.00800000E+00  1.60000000E+01  1.00800000E+00  1.00800000E+00  1.60000000E+01
  1.00800000E+00  1.00800000E+00  1.60000000E+01  1.00800000E+00  1.00800000E+00
  1.60000000E+01  1.00800000E+00  1.00800000E+00  1.60000000E+01  1.00800000E+00
  1.00800000E+00  1.60000000E+01  1.00800000E+00  1.00800000E+00  1.60000000E+01
  1.00800000E+00  1.00800000E+00  1.60000000E+01  1.00800000E+00  1.00800000E+00
  1.60000000E+01  1.00800000E+00  1.00800000E+00  1.60000000E+01  1.00800000E+00
  1.00800000E+00  1.60000000E+01  1.00800000E+00  1.00800000E+00  1.60000000E+01
  1.00800000E+00  1.00800000E+00  1.60000000E+01  1.00800000E+00  1.00800000E+00
  1.60000000E+01  1.00800000E+00  1.00800000E+00  1.60000000E+01  1.00800000E+00
  1.00800000E+00  1.60000000E+01  1.00800000E+00  1.00800000E+00  1.60000000E+01
  1.00800000E+00  1.00800000E+00  1.60000000E+01  1.00800000E+00  1.00800000E+00
  1.60000000E+01  1.00800000E+00  1.00800000E+00  1.60000000E+01  1.00800000E+00
  1.00800000E+00  1.60000000E+01  1.00800000E+00  1.00800000E+00  1.60000000E+01
  1.00800000E+00  1.00800000E+00  1.60000000E+01  1.00800000E+00  1.00800000E+00
  1.60000000E+01  1.00800000E+00  1.00800000E+00  1.60000000E+01  1.00800000E+00
  1.00800000E+00  1.60000000E+01  1.00800000E+00  1.00800000E+00  1.60000000E+01
  1.00800000E+00  1.00800000E+00  1.60000000E+01  1.00800000E+00  1.00800000E+00
  1.60000000E+01  1.00800000E+00  1.00800000E+00  1.60000000E+01  1.00800000E+00
  1.00800000E+00  1.60000000E+01  1.00800000E+00  1.00800000E+00  1.60000000E+01
  1.00800000E+00  1.00800000E+00  1.60000000E+01  1.00800000E+00  1.00800000E+00
  1.60000000E+01  1.00800000E+00  1.00800000E+00  1.60000000E+01  1.00800000E+00
  1.00800000E+00  1.60000000E+01  1.00800000E+00  1.00800000E+00  1.60000000E+01
  1.00800000E+00  1.00800000E+00  1.60000000E+01  1.00800000E+00  1.00800000E+00
  1.60000000E+01  1.00800000E+00  1.00800000E+00  1.60000000E+01  1.00800000E+00
  1.00800000E+00  1.60000000E+01  1.00800000E+00  1.00800000E+00  1.60000000E+01
  1.00800000E+00  1.00800000E+00  1.60000000E+01  1.00800000E+00  1.00800000E+00
  1.60000000E+01  1.00800000E+00  1.00800000E+00  1.60000000E+01  1.00800000E+00
  1.00800000E+00  1.60000000E+01  1.00800000E+00  1.00800000E+00  1.60000000E+01
  1.00800000E+00  1.00800000E+00  1.60000000E+01  1.00800000E+00  1.00800000E+00
  1.60000000E+01  1.00800000E+00  1.00800000E+00  1.60000000E+01  1.00800000E+00
  1.00800000E+00  1.60000000E+01  1.00800000E+00  1.00800000E+00  1.60000000E+01
  1.00800000E+00  1.00800000E+00  1.60000000E+01  1.00800000E+00  1.00800000E+00
  1.60000000E+01  1.00800000E+00  1.00800000E+00  1.60000000E+01  1.00800000E+00
  1.00800000E+00  1.60000000E+01  1.00800000E+00  1.00800000E+00  1.60000000E+01
  1.00800000E+00  1.00800000E+00  1.60000000E+01  1.00800000E+00  1.00800000E+00
  1.60000000E+01  1.00800000E+00  1.00800000E+00  1.60000000E+01  1.00800000E+00
  1.00800000E+00  1.60000000E+01  1.00800000E+00  1.00800000E+00  1.60000000E+01
  1.00800000E+00  1.00800000E+00  1.60000000E+01  1.00800000E+00  1.00800000E+00
  1.60000000E+01  1.00800000E+00  1.00800000E+00  1.60000000E+01  1.00800000E+00
  1.00800000E+00  1.60000000E+01  1.00800000E+00  1.00800000E+00  1.60000000E+01
  1.00800000E+00  1.00800000E+00  1.60000000E+01  1.00800000E+00  1.00800000E+00
  1.60000000E+01  1.00800000E+00  1.00800000E+00  1.60000000E+01  1.00800000E+00
  1.00800000E+00  1.60000000E+01  1.00800000E+00  1.00800000E+00  1.60000000E+01
  1.00800000E+00  1.00800000E+00  1.60000000E+01  1.00800000E+00  1.00800000E+00
  1.60000000E+01  1.00800000E+00  1.00800000E+00  1.60000000E+01  1.00800000E+00
  1.00800000E+00  1.60000000E+01  1.00800000E+00  1.00800000E+00  1.60000000E+01
  1.00800000E+00  1.00800000E+00  1.60000000E+01  1.00800000E+00  1.00800000E+00
  1.60000000E+01  1.00800000E+00  1.00800000E+00  1.60000000E+01  1.00800000E+00
  1.00800000E+00  1.60000000E+01  1.00800000E+00  1.00800000E+00  1.60000000E+01
  1.00800000E+00  1.00800000E+00  1.60000000E+01  1.00800000E+00  1.00800000E+00
  1.60000000E+01  1.00800000E+00  1.00800000E+00  1.60000000E+01  1.00800000E+00
  1.00800000E+00  1.60000000E+01  1.00800000E+00  1.00800000E+00  1.60000000E+01
  1.00800000E+00  1.00800000E+00  1.60000000E+01  1.00800000E+00  1.00800000E+00
  1.60000000E+01  1.00800000E+00  1.00800000E+00  1.60000000E+01  1.00800000E+00
  1.00800000E+00  1.60000000E+01  1.00800000E+00  1.00800000E+00  1.60000000E+01
  1.00800000E+00  1.00800000E+00  1.60000000E+01  1.00800000E+00  1.00800000E+00
  1.60000000E+01  1.00800000E+00  1.00800000E+00  1.60000000E+01  1.00800000E+00
  1.00800000E+00  1.60000000E+01  1.00800000E+00  1.00800000E+00  1.60000000E+01
  1.00800000E+00  1.00800000E+00  1.60000000E+01  1.00800000E+00  1.00800000E+00
  1.60000000E+01  1.00800000E+00  1.00800000E+00  1.60000000E+01  1.00800000E+00
  1.00800000E+00  1.60000000E+01  1.00800000E+00  1.00800000E+00  1.60000000E+01
  1.00800000E+00  1.00800000E+00  1.60000000E+01  1.00800000E+00  1.00800000E+00
  1.60000000E+01  1.00800000E+00  1.00800000E+00  1.60000000E+01  1.00800000E+00
  1.00800000E+00  1.60000000E+01  1.00800000E+00  1.00800000E+00  1.60000000E+01
  1.00800000E+00  1.00800000E+00  1.60000000E+01  1.00800000E+00  1.00800000E+00
  1.60000000E+01  1.00800000E+00  1.00800000E+00  1.60000000E+01  1.00800000E+00
  1.00800000E+00  1.60000000E+01  1.00800000E+00  1.00800000E+00  1.60000000E+01
  1.00800000E+00  1.00800000E+00  1.60000000E+01  1.00800000E+00  1.00800000E+00
  1.60000000E+01  1.00800000E+00  1.00800000E+00  1.60000000E+01  1.00800000E+00
  1.00800000E+00  1.60000000E+01  1.00800000E+00  1.00800000E+00  1.60000000E+01
  1.00800000E+00  1.00800000E+00  1.60000000E+01  1.00800000E+00  1.00800000E+00
  1.60000000E+01  1.00800000E+00  1.00800000E+00  1.60000000E+01  1.00800000E+00
  1.00800000E+00  1.60000000E+01  1.00800000E+00  1.00800000E+00  1.60000000E+01
  1.00800000E+00  1.00800000E+00  1.60000000E+01  1.00800000E+00  1.00800000E+00
  1.60000000E+01  1.00800000E+00  1.00800000E+00  1.60000000E+01  1.00800000E+00
  1.00800000E+00  1.60000000E+01  1.00800000E+00  1.00800000E+00  1.60000000E+01
  1.00800000E+00  1.00800000E+00  1.60000000E+01  1.00800000E+00  1.00800000E+00
  1.60000000E+01  1.00800000E+00  1.00800000E+00  1.60000000E+01  1.00800000E+00
  1.00800000E+00  1.60000000E+01  1.00800000E+00  1.00800000E+00  1.60000000E+01
  1.00800000E+00  1.00800000E+00  1.60000000E+01  1.00800000E+00  1.00800000E+00
  1.60000000E+01  1.00800000E+00  1.00800000E+00  1.60000000E+01  1.00800000E+00
  1.00800000E+00  1.60000000E+01  1.00800000E+00  1.00800000E+00  1.60000000E+01
  1.00800000E+00  1.00800000E+00  1.60000000E+01  1.00800000E+00  1.00800000E+00
  1.60000000E+01  1.00800000E+00  1.00800000E+00  1.60000000E+01  1.00800000E+00
  1.00800000E+00  1.60000000E+01  1.00800000E+00  1.00800000E+00  1.60000000E+01
  1.00800000E+00  1.00800000E+00  1.60000000E+01  1.00800000E+00  1.00800000E+00
  1.60000000E+01  1.00800000E+00  1.00800000E+00  1.60000000E+01  1.00800000E+00
  1.00800000E+00  1.60000000E+01  1.00800000E+00  1.00800000E+00  1.60000000E+01
  1.00800000E+00  1.00800000E+00  1.60000000E+01  1.00800000E+00  1.00800000E+00
  1.60000000E+01  1.00800000E+00  1.00800000E+00  1.60000000E+01  1.00800000E+00
  1.00800000E+00  1.60000000E+01  1.00800000E+00  1.00800000E+00  1.60000000E+01
  1.00800000E+00  1.00800000E+00  1.60000000E+01  1.00800000E+00  1.00800000E+00
  1.60000000E+01  1.00800000E+00  1.00800000E+00  1.60000000E+01  1.00800000E+00
  1.00800000E+00  1.60000000E+01  1.00800000E+00  1.00800000E+00  1.60000000E+01
  1.00800000E+00  1.00800000E+00  1.60000000E+01  1.00800000E+00  1.00800000E+00
  1.60000000E+01  1.00800000E+00  1.00800000E+00  1.60000000E+01  1.00800000E+00
  1.00800000E+00  1.60000000E+01  1.00800000E+00  1.00800000E+00  1.60000000E+01
  1.00800000E+00  1.00800000E+00  1.60000000E+01  1.00800000E+00  1.00800000E+00
  1.60000000E+01  1.00800000E+00  1.00800000E+00  1.60000000E+01  1.00800000E+00
  1.00800000E+00  1.60000000E+01  1.00800000E+00  1.00800000E+00  1.60000000E+01
  1.00800000E+00  1.00800000E+00  1.60000000E+01  1.00800000E+00  1.00800000E+00
  1.60000000E+01  1.00800000E+00  1.00800000E+00  1.60000000E+01  1.00800000E+00
  1.00800000E+00  1.60000000E+01  1.00800000E+00  1.00800000E+00  1.60000000E+01
  1.00800000E+00  1.00800000E+00  1.60000000E+01  1.00800000E+00  1.00800000E+00
  1.60000000E+01  1.00800000E+00  1.00800000E+00  1.60000000E+01  1.00800000E+00
  1.00800000E+00  1.60000000E+01  1.00800000E+00  1.00800000E+00  1.60000000E+01
  1.00800000E+00  1.00800000E+00  1.60000000E+01  1.00800000E+00  1.00800000E+00
  1.60000000E+01  1.00800000E+00  1.00800000E+00  1.60000000E+01  1.00800000E+00
  1.00800000E+00  1.60000000E+01  1.00800000E+00  1.00800000E+00  1.60000000E+01
  1.00800000E+00  1.00800000E+00  1.60000000E+01  1.00800000E+00  1.00800000E+00
  1.60000000E+01  1.00800000E+00  1.00800000E+00  1.60000000E+01  1.00800000E+00
  1.00800000E+00  1.60000000E+01  1.00800000E+00  1.00800000E+00  1.60000000E+01
  1.00800000E+00  1.00800000E+00  1.60000000E+01  1.00800000E+00  1.00800000E+00
  1.60000000E+01  1.00800000E+00  1.00800000E+00  1.60000000E+01  1.00800000E+00
  1.00800000E+00  1.60000000E+01  1.00800000E+00  1.00800000E+00  1.60000000E+01
  1.00800000E+00  1.00800000E+00  1.60000000E+01  1.00800000E+00  1.00800000E+00
  1.60000000E+01  1.00800000E+00  1.00800000E+00  1.60000000E+01  1.00800000E+00
  1.00800000E+00  1.60000000E+01  1.00800000E+00  1.00800000E+00  1.60000000E+01
  1.00800000E+00  1.00800000E+00  1.60000000E+01  1.00800000E+00  1.00800000E+00
  1.60000000E+01  1.00800000E+00  1.00800000E+00  1.60000000E+01  1.00800000E+00
  1.00800000E+00  1.60000000E+01  1.00800000E+00  1.00800000E+00  1.60000000E+01
  1.00800000E+00  1.00800000E+00  1.60000000E+01  1.00800000E+00  1.00800000E+00
  1.60000000E+01  1.00800000E+00  1.00800000E+00  1.60000000E+01  1.00800000E+00
  1.00800000E+00  1.60000000E+01  1.00800000E+00  1.00800000E+00  1.60000000E+01
  1.00800000E+00  1.00800000E+00  1.60000000E+01  1.00800000E+00  1.00800000E+00
  1.60000000E+01  1.00800000E+00  1.00800000E+00  1.60000000E+01  1.00800000E+00
  1.00800000E+00  1.60000000E+01  1.00800000E+00  1.00800000E+00  1.60000000E+01
  1.00800000E+00  1.00800000E+00  1.60000000E+01  1.00800000E+00  1.00800000E+00
  1.60000000E+01  1.00800000E+00  1.00800000E+00  1.60000000E+01  1.00800000E+00
  1.00800000E+00  1.60000000E+01  1.00800000E+00  1.00800000E+00  1.60000000E+01
  1.00800000E+00  1.00800000E+00  1.60000000E+01  1.00800000E+00  1.00800000E+00
  1.60000000E+01  1.00800000E+00  1.00800000E+00  1.60000000E+01  1.00800000E+00
  1.00800000E+00  1.60000000E+01  1.00800000E+00  1.00800000E+00  1.60000000E+01
  1.00800000E+00  1.00800000E+00  1.60000000E+01  1.00800000E+00  1.00800000E+00
  1.60000000E+01  1.00800000E+00  1.00800000E+00  1.60000000E+01  1.00800000E+00
  1.00800000E+00  1.60000000E+01  1.00800000E+00  1.00800000E+00  1.60000000E+01
  1.00800000E+00  1.00800000E+00  1.60000000E+01  1.00800000E+00  1.00800000E+00
  1.60000000E+01  1.00800000E+00  1.00800000E+00  1.60000000E+01  1.00800000E+00
  1.00800000E+00  1.60000000E+01  1.00800000E+00  1.00800000E+00  1.60000000E+01
  1.00800000E+00  1.00800000E+00  1.60000000E+01  1.00800000E+00  1.00800000E+00
  1.60000000E+01  1.00800000E+00  1.00800000E+00  1.60000000E+01  1.00800000E+00
  1.00800000E+00  1.60000000E+01  1.00800000E+00  1.00800000E+00  1.60000000E+01
  1.00800000E+00  1.00800000E+00  1.60000000E+01  1.00800000E+00  1.00800000E+00
  1.60000000E+01  1.00800000E+00  1.00800000E+00  1.60000000E+01  1.00800000E+00
  1.00800000E+00  1.60000000E+01  1.00800000E+00  1.00800000E+00  1.60000000E+01
  1.00800000E+00  1.00800000E+00  1.60000000E+01  1.00800000E+00  1.00800000E+00
  1.60000000E+01  1.00800000E+00  1.00800000E+00  1.60000000E+01  1.00800000E+00
  1.00800000E+00  1.60000000E+01  1.00800000E+00  1.00800000E+00  1.60000000E+01
  1.00800000E+00  1.00800000E+00  1.60000000E+01  1.00800000E+00  1.00800000E+00
  1.60000000E+01  1.00800000E+00  1.00800000E+00  1.60000000E+01  1.00800000E+00
  1.00800000E+00  1.60000000E+01  1.00800000E+00  1.00800000E+00  1.60000000E+01
  1.00800000E+00  1.00800000E+00  1.60000000E+01  1.00800000E+00  1.00800000E+00
  1.60000000E+01  1.00800000E+00  1.00800000E+00  1.60000000E+01  1.00800000E+00
  1.00800000E+00  1.60000000E+01  1.00800000E+00  1.00800000E+00  1.60000000E+01
  1.00800000E+00  1.00800000E+00  1.60000000E+01  1.00800000E+00  1.00800000E+00
  1.60000000E+01  1.00800000E+00  1.00800000E+00  1.60000000E+01  1.00800000E+00
  1.00800000E+00  1.60000000E+01  1.00800000E+00  1.00800000E+00  1.60000000E+01
  1.00800000E+00  1.00800000E+00  1.60000000E+01  1.00800000E+00  1.00800000E+00
  1.60000000E+01  1.00800000E+00  1.00800000E+00  1.60000000E+01  1.00800000E+00
  1.00800000E+00  1.60000000E+01  1.00800000E+00  1.00800000E+00  1.60000000E+01
  1.00800000E+00  1.00800000E+00  1.60000000E+01  1.00800000E+00  1.00800000E+00
  1.60000000E+01  1.00800000E+00  1.00800000E+00  1.60000000E+01  1.00800000E+00
  1.00800000E+00  1.60000000E+01  1.00800000E+00  1.00800000E+00  1.60000000E+01
  1.00800000E+00  1.00800000E+00  1.60000000E+01  1.00800000E+00  1.00800000E+00
  1.60000000E+01  1.00800000E+00  1.00800000E+00  1.60000000E+01  1.00800000E+00
  1.00800000E+00  1.60000000E+01  1.00800000E+00  1.00800000E+00  1.60000000E+01
  1.00800000E+00  1.00800000E+00  1.60000000E+01  1.00800000E+00  1.00800000E+00
  1.60000000E+01  1.00800000E+00  1.00800000E+00  1.60000000E+01  1.00800000E+00
  1.00800000E+00  1.60000000E+01  1.00800000E+00  1.00800000E+00  1.60000000E+01
  1.00800000E+00  1.00800000E+00  1.60000000E+01  1.00800000E+00  1.00800000E+00
  1.60000000E+01  1.00800000E+00  1.00800000E+00  1.60000000E+01  1.00800000E+00
  1.00800000E+00  1.60000000E+01  1.00800000E+00  1.00800000E+00  1.60000000E+01
  1.00800000E+00  1.00800000E+00  1.60000000E+01  1.00800000E+00  1.00800000E+00
  1.60000000E+01  1.00800000E+00  1.00800000E+00  1.60000000E+01  1.00800000E+00
  1.00800000E+00  1.60000000E+01  1.00800000E+00  1.00800000E+00  1.60000000E+01
  1.00800000E+00  1.00800000E+00  1.60000000E+01  1.00800000E+00  1.00800000E+00
  1.60000000E+01  1.00800000E+00  1.00800000E+00  1.60000000E+01  1.00800000E+00
  1.00800000E+00  1.60000000E+01  1.00800000E+00  1.00800000E+00  1.60000000E+01
  1.00800000E+00  1.00800000E+00  1.60000000E+01  1.00800000E+00  1.00800000E+00
  1.60000000E+01  1.00800000E+00  1.00800000E+00  1.60000000E+01  1.00800000E+00
  1.00800000E+00  1.60000000E+01  1.00800000E+00  1.00800000E+00  1.60000000E+01
  1.00800000E+00  1.00800000E+00  1.60000000E+01  1.00800000E+00  1.00800000E+00
  1.60000000E+01  1.00800000E+00  1.00800000E+00  1.60000000E+01  1.00800000E+00
  1.00800000E+00  1.60000000E+01  1.00800000E+00  1.00800000E+00  1.60000000E+01
  1.00800000E+00  1.00800000E+00  1.60000000E+01  1.00800000E+00  1.00800000E+00
  1.60000000E+01  1.00800000E+00  1.00800000E+00  1.60000000E+01  1.00800000E+00
  1.00800000E+00  1.60000000E+01  1.00800000E+00  1.00800000E+00  1.60000000E+01
  1.00800000E+00  1.00800000E+00  1.60000000E+01  1.00800000E+00  1.00800000E+00
  1.60000000E+01  1.00800000E+00  1.00800000E+00  1.60000000E+01  1.00800000E+00
  1.00800000E+00  1.60000000E+01  1.00800000E+00  1.00800000E+00  1.60000000E+01
  1.00800000E+00  1.00800000E+00  1.60000000E+01  1.00800000E+00  1.00800000E+00
  1.60000000E+01  1.00800000E+00  1.00800000E+00  1.60000000E+01  1.00800000E+00
  1.00800000E+00  1.60000000E+01  1.00800000E+00  1.00800000E+00  1.60000000E+01
  1.00800000E+00  1.00800000E+00  1.60000000E+01  1.00800000E+00  1.00800000E+00
  1.60000000E+01  1.00800000E+00  1.00800000E+00  1.60000000E+01  1.00800000E+00
  1.00800000E+00  1.60000000E+01  1.00800000E+00  1.00800000E+00  1.60000000E+01
  1.00800000E+00  1.00800000E+00  1.60000000E+01  1.00800000E+00  1.00800000E+00
  1.60000000E+01  1.00800000E+00  1.00800000E+00  1.60000000E+01  1.00800000E+00
  1.00800000E+00  1.60000000E+01  1.00800000E+00  1.00800000E+00  1.60000000E+01
  1.00800000E+00  1.00800000E+00  1.60000000E+01  1.00800000E+00  1.00800000E+00
  1.60000000E+01  1.00800000E+00  1.00800000E+00  1.60000000E+01  1.00800000E+00
  1.00800000E+00  1.60000000E+01  1.00800000E+00  1.00800000E+00  1.60000000E+01
  1.00800000E+00  1.00800000E+00  1.60000000E+01  1.00800000E+00  1.00800000E+00
  1.60000000E+01  1.00800000E+00  1.00800000E+00  1.60000000E+01  1.00800000E+00
  1.00800000E+00  1.60000000E+01  1.00800000E+00  1.00800000E+00  1.60000000E+01
  1.00800000E+00  1.00800000E+00  1.60000000E+01  1.00800000E+00  1.00800000E+00
  1.60000000E+01  1.00800000E+00  1.00800000E+00  1.60000000E+01  1.00800000E+00
  1.00800000E+00  1.60000000E+01  1.00800000E+00  1.00800000E+00  1.60000000E+01
  1.00800000E+00  1.00800000E+00  1.60000000E+01  1.00800000E+00  1.00800000E+00
  1.60000000E+01  1.00800000E+00  1.00800000E+00  1.60000000E+01  1.00800000E+00
  1.00800000E+00  1.60000000E+01  1.00800000E+00  1.00800000E+00  1.60000000E+01
  1.00800000E+00  1.00800000E+00  1.60000000E+01  1.00800000E+00  1.00800000E+00
  1.60000000E+01  1.00800000E+00  1.00800000E+00  1.60000000E+01  1.00800000E+00
  1.00800000E+00  1.60000000E+01  1.00800000E+00  1.00800000E+00  1.60000000E+01
  1.00800000E+00  1.00800000E+00  1.60000000E+01  1.00800000E+00  1.00800000E+00
  1.60000000E+01  1.00800000E+00  1.00800000E+00  1.60000000E+01  1.00800000E+00
  1.00800000E+00  1.60000000E+01  1.00800000E+00  1.00800000E+00  1.60000000E+01
  1.00800000E+00  1.00800000E+00  1.60000000E+01  1.00800000E+00  1.00800000E+00
  1.60000000E+01  1.00800000E+00  1.00800000E+00  1.60000000E+01  1.00800000E+00
  1.00800000E+00  1.60000000E+01  1.00800000E+00  1.00800000E+00  1.60000000E+01
  1.00800000E+00  1.00800000E+00  1.60000000E+01  1.00800000E+00  1.00800000E+00
  1.60000000E+01  1.00800000E+00  1.00800000E+00  1.60000000E+01  1.00800000E+00
  1.00800000E+00  1.60000000E+01  1.00800000E+00  1.00800000E+00  1.60000000E+01
  1.00800000E+00  1.00800000E+00  1.60000000E+01  1.00800000E+00  1.00800000E+00
  1.60000000E+01  1.00800000E+00  1.00800000E+00  1.60000000E+01  1.00800000E+00
  1.00800000E+00  1.60000000E+01  1.00800000E+00  1.00800000E+00  1.60000000E+01
  1.00800000E+00  1.00800000E+00  1.60000000E+01  1.00800000E+00  1.00800000E+00
  1.60000000E+01  1.00800000E+00  1.00800000E+00  1.60000000E+01  1.00800000E+00
  1.00800000E+00  1.60000000E+01  1.00800000E+00  1.00800000E+00  1.60000000E+01
  1.00800000E+00  1.00800000E+00  1.60000000E+01  1.00800000E+00  1.00800000E+00
  1.60000000E+01  1.00800000E+00  1.00800000E+00  1.60000000E+01  1.00800000E+00
  1.00800000E+00  1.60000000E+01  1.00800000E+00  1.00800000E+00  1.60000000E+01
  1.00800000E+00  1.00800000E+00  1.60000000E+01  1.00800000E+00  1.00800000E+00
  1.60000000E+01  1.00800000E+00  1.00800000E+00  1.60000000E+01  1.00800000E+00
  1.00800000E+00  1.60000000E+01  1.00800000E+00  1.00800000E+00  1.60000000E+01
  1.00800000E+00  1.00800000E+00  1.60000000E+01  1.00800000E+00  1.00800000E+00
  1.60000000E+01  1.00800000E+00  1.00800000E+00  1.60000000E+01  1.00800000E+00
  1.00800000E+00  1.60000000E+01  1.00800000E+00  1.00800000E+00  1.60000000E+01
  1.00800000E+00  1.00800000E+00  1.60000000E+01  1.00800000E+00  1.00800000E+00
  1.60000000E+01  1.00800000E+00  1.00800000E+00  1.60000000E+01  1.00800000E+00
  1.00800000E+00  1.60000000E+01  1.00800000E+00  1.00800000E+00  1.60000000E+01
  1.00800000E+00  1.00800000E+00  1.60000000E+01  1.00800000E+00  1.00800000E+00
  1.60000000E+01  1.00800000E+00  1.00800000E+00  1.60000000E+01  1.00800000E+00
  1.00800000E+00  1.60000000E+01  1.00800000E+00  1.00800000E+00  1.60000000E+01
  1.00800000E+00  1.00800000E+00  1.60000000E+01  1.00800000E+00  1.00800000E+00
  1.60000000E+01  1.00800000E+00  1.00800000E+00  1.60000000E+01  1.00800000E+00
  1.00800000E+00  1.60000000E+01  1.00800000E+00  1.00800000E+00  1.60000000E+01
  1.00800000E+00  1.00800000E+00  1.60000000E+01  1.00800000E+00  1.00800000E+00
  1.60000000E+01  1.00800000E+00  1.00800000E+00  1.60000000E+01  1.00800000E+00
  1.00800000E+00  1.60000000E+01  1.00800000E+00  1.00800000E+00  1.60000000E+01
  1.00800000E+00  1.00800000E+00  1.60000000E+01  1.00800000E+00  1.00800000E+00
  1.60000000E+01  1.00800000E+00  1.00800000E+00  1.60000000E+01  1.00800000E+00
  1.00800000E+00  1.60000000E+01  1.00800000E+00  1.00800000E+00  1.60000000E+01
  1.00800000E+00  1.00800000E+00  1.60000000E+01  1.00800000E+00  1.00800000E+00
  1.60000000E+01  1.00800000E+00  1.00800000E+00  1.60000000E+01  1.00800000E+00
  1.00800000E+00  1.60000000E+01  1.00800000E+00  1.00800000E+00  1.60000000E+01
  1.00800000E+00  1.00800000E+00  1.60000000E+01  1.00800000E+00  1.00800000E+00
  1.60000000E+01  1.00800000E+00  1.00800000E+00  1.60000000E+01  1.00800000E+00
  1.00800000E+00  1.60000000E+01  1.00800000E+00  1.00800000E+00  1.60000000E+01
  1.00800000E+00  1.00800000E+00  1.60000000E+01  1.00800000E+00  1.00800000E+00
  1.60000000E+01  1.00800000E+00  1.00800000E+00  1.60000000E+01  1.00800000E+00
  1.00800000E+00  1.60000000E+01  1.00800000E+00  1.00800000E+00  1.60000000E+01
  1.00800000E+00  1.00800000E+00  1.60000000E+01  1.00800000E+00  1.00800000E+00
  1.60000000E+01  1.00800000E+00  1.00800000E+00  1.60000000E+01  1.00800000E+00
  1.00800000E+00  1.60000000E+01  1.00800000E+00  1.00800000E+00  1.60000000E+01
  1.00800000E+00  1.00800000E+00  1.60000000E+01  1.00800000E+00  1.00800000E+00
  1.60000000E+01  1.00800000E+00  1.00800000E+00  1.60000000E+01  1.00800000E+00
  1.00800000E+00  1.60000000E+01  1.00800000E+00  1.00800000E+00  1.60000000E+01
  1.00800000E+00  1.00800000E+00  1.60000000E+01  1.00800000E+00  1.00800000E+00
  1.60000000E+01  1.00800000E+00  1.00800000E+00  1.60000000E+01  1.00800000E+00
  1.00800000E+00  1.60000000E+01  1.00800000E+00  1.00800000E+00  1.60000000E+01
  1.00800000E+00  1.00800000E+00  1.60000000E+01  1.00800000E+00  1.00800000E+00
  1.60000000E+01  1.00800000E+00  1.00800000E+00  1.60000000E+01  1.00800000E+00
  1.00800000E+00  1.60000000E+01  1.00800000E+00  1.00800000E+00  1.60000000E+01
  1.00800000E+00  1.00800000E+00  1.60000000E+01  1.00800000E+00  1.00800000E+00
  1.60000000E+01  1.00800000E+00  1.00800000E+00  1.60000000E+01  1.00800000E+00
  1.00800000E+00  1.60000000E+01  1.00800000E+00  1.00800000E+00  1.60000000E+01
  1.00800000E+00  1.00800000E+00  1.60000000E+01  1.00800000E+00  1.00800000E+00
  1.60000000E+01  1.00800000E+00  1.00800000E+00  1.60000000E+01  1.00800000E+00
  1.00800000E+00  1.60000000E+01  1.00800000E+00  1.00800000E+00  1.60000000E+01
  1.00800000E+00  1.00800000E+00  1.60000000E+01  1.00800000E+00  1.00800000E+00
  1.60000000E+01  1.00800000E+00  1.00800000E+00  1.60000000E+01  1.00800000E+00
  1.00800000E+00  1.60000000E+01  1.00800000E+00  1.00800000E+00  1.60000000E+01
  1.00800000E+00  1.00800000E+00  1.60000000E+01  1.00800000E+00  1.00800000E+00
  1.60000000E+01  1.00800000E+00  1.00800000E+00  1.60000000E+01  1.00800000E+00
  1.00800000E+00  1.60000000E+01  1.00800000E+00  1.00800000E+00  1.60000000E+01
  1.00800000E+00  1.00800000E+00  1.60000000E+01  1.00800000E+00  1.00800000E+00
  1.60000000E+01  1.00800000E+00  1.00800000E+00  1.60000000E+01  1.00800000E+00
  1.00800000E+00  1.60000000E+01  1.00800000E+00  1.00800000E+00  1.60000000E+01
  1.00800000E+00  1.00800000E+00  1.60000000E+01  1.00800000E+00  1.00800000E+00
  1.60000000E+01  1.00800000E+00  1.00800000E+00  1.60000000E+01  1.00800000E+00
  1.00800000E+00  1.60000000E+01  1.00800000E+00  1.00800000E+00  1.60000000E+01
  1.00800000E+00  1.00800000E+00  1.60000000E+01  1.00800000E+00  1.00800000E+00
  1.60000000E+01  1.00800000E+00  1.00800000E+00  1.60000000E+01  1.00800000E+00
  1.00800000E+00  1.60000000E+01  1.00800000E+00  1.00800000E+00  1.60000000E+01
  1.00800000E+00  1.00800000E+00  1.60000000E+01  1.00800000E+00  1.00800000E+00
  1.60000000E+01  1.00800000E+00  1.00800000E+00  1.60000000E+01  1.00800000E+00
  1.00800000E+00  1.60000000E+01  1.00800000E+00  1.00800000E+00  1.60000000E+01
  1.00800000E+00  1.00800000E+00  1.60000000E+01  1.00800000E+00  1.00800000E+00
  1.60000000E+01  1.00800000E+00  1.00800000E+00  1.60000000E+01  1.00800000E+00
  1.00800000E+00  1.60000000E+01  1.00800000E+00  1.00800000E+00  1.60000000E+01
  1.00800000E+00  1.00800000E+00  1.60000000E+01  1.00800000E+00  1.00800000E+00
  1.60000000E+01  1.00800000E+00  1.00800000E+00  1.60000000E+01  1.00800000E+00
  1.00800000E+00  1.60000000E+01  1.00800000E+00  1.00800000E+00  1.60000000E+01
  1.00800000E+00  1.00800000E+00  1.60000000E+01  1.00800000E+00  1.00800000E+00
  1.60000000E+01  1.00800000E+00  1.00800000E+00  1.60000000E+01  1.00800000E+00
  1.00800000E+00  1.60000000E+01  1.00800000E+00  1.00800000E+00  1.60000000E+01
  1.00800000E+00  1.00800000E+00  1.60000000E+01  1.00800000E+00  1.00800000E+00
  1.60000000E+01  1.00800000E+00  1.00800000E+00  1.60000000E+01  1.00800000E+00
  1.00800000E+00  1.60000000E+01  1.00800000E+00  1.00800000E+00  1.60000000E+01
  1.00800000E+00  1.00800000E+00  1.60000000E+01  1.00800000E+00  1.00800000E+00
  1.60000000E+01  1.00800000E+00  1.00800000E+00  1.60000000E+01  1.00800000E+00
  1.00800000E+00  1.60000000E+01  1.00800000E+00  1.00800000E+00  1.60000000E+01
  1.00800000E+00  1.00800000E+00  1.60000000E+01  1.00800000E+00  1.00800000E+00
  1.60000000E+01  1.00800000E+00  1.00800000E+00  1.60000000E+01  1.00800000E+00
  1.00800000E+00  1.60000000E+01  1.00800000E+00  1.00800000E+00  1.60000000E+01
  1.00800000E+00  1.00800000E+00  1.60000000E+01  1.00800000E+00  1.00800000E+00
  1.60000000E+01  1.00800000E+00  1.00800000E+00  1.60000000E+01  1.00800000E+00
  1.00800000E+00  1.60000000E+01  1.00800000E+00  1.00800000E+00  1.60000000E+01
  1.00800000E+00  1.00800000E+00  1.60000000E+01  1.00800000E+00  1.00800000E+00
  1.60000000E+01  1.00800000E+00  1.00800000E+00  1.60000000E+01  1.00800000E+00
  1.00800000E+00  1.60000000E+01  1.00800000E+00  1.00800000E+00  1.60000000E+01
  1.00800000E+00  1.00800000E+00  1.60000000E+01  1.00800000E+00  1.00800000E+00
  1.60000000E+01  1.00800000E+00  1.00800000E+00  1.60000000E+01  1.00800000E+00
  1.00800000E+00  1.60000000E+01  1.00800000E+00  1.00800000E+00  1.60000000E+01
  1.00800000E+00  1.00800000E+00  1.60000000E+01  1.00800000E+00  1.00800000E+00
  1.60000000E+01  1.00800000E+00  1.00800000E+00  1.60000000E+01  1.00800000E+00
  1.00800000E+00  1.60000000E+01  1.00800000E+00  1.00800000E+00  1.60000000E+01
  1.00800000E+00  1.00800000E+00  1.60000000E+01  1.00800000E+00  1.00800000E+00
  1.60000000E+01  1.00800000E+00  1.00800000E+00  1.60000000E+01  1.00800000E+00
  1.00800000E+00  1.60000000E+01  1.00800000E+00  1.00800000E+00  1.60000000E+01
  1.00800000E+00  1.00800000E+00  1.60000000E+01  1.00800000E+00  1.00800000E+00
  1.60000000E+01  1.00800000E+00  1.00800000E+00  1.60000000E+01  1.00800000E+00
  1.00800000E+00  1.60000000E+01  1.00800000E+00  1.00800000E+00  1.60000000E+01
  1.00800000E+00  1.00800000E+00  1.60000000E+01  1.00800000E+00  1.00800000E+00
  1.60000000E+01  1.00800000E+00  1.00800000E+00  1.60000000E+01  1.00800000E+00
  1.00800000E+00  1.60000000E+01  1.00800000E+00  1.00800000E+00  1.60000000E+01
  1.00800000E+00  1.00800000E+00  1.60000000E+01  1.00800000E+00  1.00800000E+00
  1.60000000E+01  1.00800000E+00  1.00800000E+00  1.60000000E+01  1.00800000E+00
  1.00800000E+00  1.60000000E+01  1.00800000E+00  1.00800000E+00  1.60000000E+01
  1.00800000E+00  1.00800000E+00  1.60000000E+01  1.00800000E+00  1.00800000E+00
  1.60000000E+01  1.00800000E+00  1.00800000E+00  1.60000000E+01  1.00800000E+00
  1.00800000E+00  1.60000000E+01  1.00800000E+00  1.00800000E+00  1.60000000E+01
  1.00800000E+00  1.00800000E+00  1.60000000E+01  1.00800000E+00  1.00800000E+00
  1.60000000E+01  1.00800000E+00  1.00800000E+00  1.60000000E+01  1.00800000E+00
  1.00800000E+00  1.60000000E+01  1.00800000E+00  1.00800000E+00  1.60000000E+01
  1.00800000E+00  1.00800000E+00  1.60000000E+01  1.00800000E+00  1.00800000E+00
  1.60000000E+01  1.00800000E+00  1.00800000E+00  1.60000000E+01  1.00800000E+00
  1.00800000E+00  1.60000000E+01  1.00800000E+00  1.00800000E+00  1.60000000E+01
  1.00800000E+00  1.00800000E+00  1.60000000E+01  1.00800000E+00  1.00800000E+00
  1.60000000E+01  1.00800000E+00  1.00800000E+00  1.60000000E+01  1.00800000E+00
  1.00800000E+00  1.60000000E+01  1.00800000E+00  1.00800000E+00  1.60000000E+01
  1.00800000E+00  1.00800000E+00  1.60000000E+01  1.00800000E+00  1.00800000E+00
  1.60000000E+01  1.00800000E+00  1.00800000E+00  1.60000000E+01  1.00800000E+00
  1.00800000E+00  1.60000000E+01  1.00800000E+00  1.00800000E+00  1.60000000E+01
  1.00800000E+00  1.00800000E+00  1.60000000E+01  1.00800000E+00  1.00800000E+00
  1.60000000E+01  1.00800000E+00  1.00800000E+00  1.60000000E+01  1.00800000E+00
  1.00800000E+00  1.60000000E+01  1.00800000E+00  1.00800000E+00  1.60000000E+01
  1.00800000E+00  1.00800000E+00  1.60000000E+01  1.00800000E+00  1.00800000E+00
  1.60000000E+01  1.00800000E+00  1.00800000E+00  1.60000000E+01  1.00800000E+00
  1.00800000E+00  1.60000000E+01  1.00800000E+00  1.00800000E+00  1.60000000E+01
  1.00800000E+00  1.00800000E+00  1.60000000E+01  1.00800000E+00  1.00800000E+00
  1.60000000E+01  1.00800000E+00  1.00800000E+00  1.60000000E+01  1.00800000E+00
  1.00800000E+00  1.60000000E+01  1.00800000E+00  1.00800000E+00  1.60000000E+01
  1.00800000E+00  1.00800000E+00  1.60000000E+01  1.00800000E+00  1.00800000E+00
  1.60000000E+01  1.00800000E+00  1.00800000E+00  1.60000000E+01  1.00800000E+00
  1.00800000E+00  1.60000000E+01  1.00800000E+00  1.00800000E+00  1.60000000E+01
  1.00800000E+00  1.00800000E+00  1.60000000E+01  1.00800000E+00  1.00800000E+00
  1.60000000E+01  1.00800000E+00  1.00800000E+00  1.60000000E+01  1.00800000E+00
  1.00800000E+00  1.60000000E+01  1.00800000E+00  1.00800000E+00  1.60000000E+01
  1.00800000E+00  1.00800000E+00  1.60000000E+01  1.00800000E+00  1.00800000E+00
  1.60000000E+01  1.00800000E+00  1.00800000E+00  1.60000000E+01  1.00800000E+00
  1.00800000E+00  1.60000000E+01  1.00800000E+00  1.00800000E+00  1.60000000E+01
  1.00800000E+00  1.00800000E+00  1.60000000E+01  1.00800000E+00  1.00800000E+00
  1.60000000E+01  1.00800000E+00  1.00800000E+00  1.60000000E+01  1.00800000E+00
  1.00800000E+00  1.60000000E+01  1.00800000E+00  1.00800000E+00  1.60000000E+01
  1.00800000E+00  1.00800000E+00  1.60000000E+01  1.00800000E+00  1.00800000E+00
  1.60000000E+01  1.00800000E+00  1.00800000E+00  1.60000000E+01  1.00800000E+00
  1.00800000E+00  1.60000000E+01  1.00800000E+00  1.00800000E+00  1.60000000E+01
  1.00800000E+00  1.00800000E+00  1.60000000E+01  1.00800000E+00  1.00800000E+00
  1.60000000E+01  1.00800000E+00  1.00800000E+00  1.60000000E+01  1.00800000E+00
  1.00800000E+00  1.60000000E+01  1.00800000E+00  1.00800000E+00  1.60000000E+01
  1.00800000E+00  1.00800000E+00  1.60000000E+01  1.00800000E+00  1.00800000E+00
  1.60000000E+01  1.00800000E+00  1.00800000E+00  1.60000000E+01  1.00800000E+00
  1.00800000E+00  1.60000000E+01  1.00800000E+00  1.00800000E+00  1.60000000E+01
  1.00800000E+00  1.00800000E+00  1.60000000E+01  1.00800000E+00  1.00800000E+00
  1.60000000E+01  1.00800000E+00  1.00800000E+00  1.60000000E+01  1.00800000E+00
  1.00800000E+00  1.60000000E+01  1.00800000E+00  1.00800000E+00  1.60000000E+01
  1.00800000E+00  1.00800000E+00  1.60000000E+01  1.00800000E+00  1.00800000E+00
  1.60000000E+01  1.00800000E+00  1.00800000E+00  1.60000000E+01  1.00800000E+00
  1.00800000E+00  1.60000000E+01  1.00800000E+00  1.00800000E+00  1.60000000E+01
  1.00800000E+00  1.00800000E+00  1.60000000E+01  1.00800000E+00  1.00800000E+00
  1.60000000E+01  1.00800000E+00  1.00800000E+00  1.60000000E+01  1.00800000E+00
  1.00800000E+00  1.60000000E+01  1.00800000E+00  1.00800000E+00  1.60000000E+01
  1.00800000E+00  1.00800000E+00  1.60000000E+01  1.00800000E+00  1.00800000E+00
  1.60000000E+01  1.00800000E+00  1.00800000E+00  1.60000000E+01  1.00800000E+00
  1.00800000E+00  1.60000000E+01  1.00800000E+00  1.00800000E+00  1.60000000E+01
  1.00800000E+00  1.00800000E+00  1.60000000E+01  1.00800000E+00  1.00800000E+00
  1.60000000E+01  1.00800000E+00  1.00800000E+00  1.60000000E+01  1.00800000E+00
  1.00800000E+00  1.60000000E+01  1.00800000E+00  1.00800000E+00  1.60000000E+01
  1.00800000E+00  1.00800000E+00  1.60000000E+01  1.00800000E+00  1.00800000E+00
  1.60000000E+01  1.00800000E+00  1.00800000E+00  1.60000000E+01  1.00800000E+00
  1.00800000E+00  1.60000000E+01  1.00800000E+00  1.00800000E+00  1.60000000E+01
  1.00800000E+00  1.00800000E+00  1.60000000E+01  1.00800000E+00  1.00800000E+00
  1.60000000E+01  1.00800000E+00  1.00800000E+00  1.60000000E+01  1.00800000E+00
  1.00800000E+00  1.60000000E+01  1.00800000E+00  1.00800000E+00  1.60000000E+01
  1.00800000E+00  1.00800000E+00  1.60000000E+01  1.00800000E+00  1.00800000E+00
  1.60000000E+01  1.00800000E+00  1.00800000E+00  1.60000000E+01  1.00800000E+00
  1.00800000E+00  1.60000000E+01  1.00800000E+00  1.00800000E+00  1.60000000E+01
  1.00800000E+00  1.00800000E+00  1.60000000E+01  1.00800000E+00  1.00800000E+00
  1.60000000E+01  1.00800000E+00  1.00800000E+00  1.60000000E+01  1.00800000E+00
  1.00800000E+00  1.60000000E+01  1.00800000E+00  1.00800000E+00  1.60000000E+01
  1.00800000E+00  1.00800000E+00  1.60000000E+01  1.00800000E+00  1.00800000E+00
  1.60000000E+01  1.00800000E+00  1.00800000E+00  1.60000000E+01  1.00800000E+00
  1.00800000E+00  1.60000000E+01  1.00800000E+00  1.00800000E+00  1.60000000E+01
  1.00800000E+00  1.00800000E+00  1.60000000E+01  1.00800000E+00  1.00800000E+00
  1.60000000E+01  1.00800000E+00  1.00800000E+00  1.60000000E+01  1.00800000E+00
  1.00800000E+00  1.60000000E+01  1.00800000E+00  1.00800000E+00  1.60000000E+01
  1.00800000E+00  1.00800000E+00  1.60000000E+01  1.00800000E+00  1.00800000E+00
  1.60000000E+01  1.00800000E+00  1.00800000E+00  1.60000000E+01  1.00800000E+00
  1.00800000E+00  1.60000000E+01  1.00800000E+00  1.00800000E+00  1.60000000E+01
  1.00800000E+00  1.00800000E+00  1.60000000E+01  1.00800000E+00  1.00800000E+00
  1.60000000E+01  1.00800000E+00  1.00800000E+00  1.60000000E+01  1.00800000E+00
  1.00800000E+00  1.60000000E+01  1.00800000E+00  1.00800000E+00  1.60000000E+01
  1.00800000E+00  1.00800000E+00  1.60000000E+01  1.00800000E+00  1.00800000E+00
  1.60000000E+01  1.00800000E+00  1.00800000E+00  1.60000000E+01  1.00800000E+00
  1.00800000E+00  1.60000000E+01  1.00800000E+00  1.00800000E+00  1.60000000E+01
  1.00800000E+00  1.00800000E+00  1.60000000E+01  1.00800000E+00  1.00800000E+00
  1.60000000E+01  1.00800000E+00  1.00800000E+00  1.60000000E+01  1.00800000E+00
  1.00800000E+00  1.60000000E+01  1.00800000E+00  1.00800000E+00  1.60000000E+01
  1.00800000E+00  1.00800000E+00  1.60000000E+01  1.00800000E+00  1.00800000E+00
  1.60000000E+01  1.00800000E+00  1.00800000E+00  1.60000000E+01  1.00800000E+00
  1.00800000E+00  1.60000000E+01  1.00800000E+00  1.00800000E+00  1.60000000E+01
  1.00800000E+00  1.00800000E+00  1.60000000E+01  1.00800000E+00  1.00800000E+00
  1.60000000E+01  1.00800000E+00  1.00800000E+00  1.60000000E+01  1.00800000E+00
  1.00800000E+00  1.60000000E+01  1.00800000E+00  1.00800000E+00  1.60000000E+01
  1.00800000E+00  1.00800000E+00  1.60000000E+01  1.00800000E+00  1.00800000E+00
  1.60000000E+01  1.00800000E+00  1.00800000E+00  1.60000000E+01  1.00800000E+00
  1.00800000E+00  1.60000000E+01  1.00800000E+00  1.00800000E+00  1.60000000E+01
  1.00800000E+00  1.00800000E+00  1.60000000E+01  1.00800000E+00  1.00800000E+00
  1.60000000E+01  1.00800000E+00  1.00800000E+00  1.60000000E+01  1.00800000E+00
  1.00800000E+00  1.60000000E+01  1.00800000E+00  1.00800000E+00  1.60000000E+01
  1.00800000E+00  1.00800000E+00  1.60000000E+01  1.00800000E+00  1.00800000E+00
  1.60000000E+01  1.00800000E+00  1.00800000E+00  1.60000000E+01  1.00800000E+00
  1.00800000E+00  1.60000000E+01  1.00800000E+00  1.00800000E+00  1.60000000E+01
  1.00800000E+00  1.00800000E+00  1.60000000E+01  1.00800000E+00  1.00800000E+00
  1.60000000E+01  1.00800000E+00  1.00800000E+00  1.60000000E+01  1.00800000E+00
  1.00800000E+00  1.60000000E+01  1.00800000E+00  1.00800000E+00  1.60000000E+01
  1.00800000E+00  1.00800000E+00  1.60000000E+01  1.00800000E+00  1.00800000E+00
  1.60000000E+01  1.00800000E+00  1.00800000E+00  1.60000000E+01  1.00800000E+00
  1.00800000E+00  1.60000000E+01  1.00800000E+00  1.00800000E+00  1.60000000E+01
  1.00800000E+00  1.00800000E+00  1.60000000E+01  1.00800000E+00  1.00800000E+00
  1.60000000E+01  1.00800000E+00  1.00800000E+00  1.60000000E+01  1.00800000E+00
  1.00800000E+00  1.60000000E+01  1.00800000E+00  1.00800000E+00  1.60000000E+01
  1.00800000E+00  1.00800000E+00  1.60000000E+01  1.00800000E+00  1.00800000E+00
  1.60000000E+01  1.00800000E+00  1.00800000E+00  1.60000000E+01  1.00800000E+00
  1.00800000E+00  1.60000000E+01  1.00800000E+00  1.00800000E+00  1.60000000E+01
  1.00800000E+00  1.00800000E+00  1.60000000E+01  1.00800000E+00  1.00800000E+00
  1.60000000E+01  1.00800000E+00  1.00800000E+00  1.60000000E+01  1.00800000E+00
  1.00800000E+00  1.60000000E+01  1.00800000E+00  1.00800000E+00  1.60000000E+01
  1.00800000E+00  1.00800000E+00  1.60000000E+01  1.00800000E+00  1.00800000E+00
  1.60000000E+01  1.00800000E+00  1.00800000E+00  1.60000000E+01  1.00800000E+00
  1.00800000E+00  1.60000000E+01  1.00800000E+00  1.00800000E+00  1.60000000E+01
  1.00800000E+00  1.00800000E+00  1.60000000E+01  1.00800000E+00  1.00800000E+00
  1.60000000E+01  1.00800000E+00  1.00800000E+00  1.60000000E+01  1.00800000E+00
  1.00800000E+00  1.60000000E+01  1.00800000E+00  1.00800000E+00  1.60000000E+01
  1.00800000E+00  1.00800000E+00  1.60000000E+01  1.00800000E+00  1.00800000E+00
  1.60000000E+01  1.00800000E+00  1.00800000E+00  1.60000000E+01  1.00800000E+00
  1.00800000E+00  1.60000000E+01  1.00800000E+00  1.00800000E+00  1.60000000E+01
  1.00800000E+00  1.00800000E+00  1.60000000E+01  1.00800000E+00  1.00800000E+00
  1.60000000E+01  1.00800000E+00  1.00800000E+00  1.60000000E+01  1.00800000E+00
  1.00800000E+00  1.60000000E+01  1.00800000E+00  1.00800000E+00  1.60000000E+01
  1.00800000E+00  1.00800000E+00  1.60000000E+01  1.00800000E+00  1.00800000E+00
  1.60000000E+01  1.00800000E+00  1.00800000E+00  1.60000000E+01  1.00800000E+00
  1.00800000E+00  1.60000000E+01  1.00800000E+00  1.00800000E+00  1.60000000E+01
  1.00800000E+00  1.00800000E+00  1.60000000E+01  1.00800000E+00  1.00800000E+00
  1.60000000E+01  1.00800000E+00  1.00800000E+00  1.60000000E+01  1.00800000E+00
  1.00800000E+00  1.60000000E+01  1.00800000E+00  1.00800000E+00  1.60000000E+01
  1.00800000E+00  1.00800000E+00  1.60000000E+01  1.00800000E+00  1.00800000E+00
  1.60000000E+01  1.00800000E+00  1.00800000E+00  1.60000000E+01  1.00800000E+00
  1.00800000E+00  1.60000000E+01  1.00800000E+00  1.00800000E+00  1.60000000E+01
  1.00800000E+00  1.00800000E+00  1.60000000E+01  1.00800000E+00  1.00800000E+00
  1.60000000E+01  1.00800000E+00  1.00800000E+00  1.60000000E+01  1.00800000E+00
  1.00800000E+00  1.60000000E+01  1.00800000E+00  1.00800000E+00  1.60000000E+01
  1.00800000E+00  1.00800000E+00  1.60000000E+01  1.00800000E+00  1.00800000E+00
  1.60000000E+01  1.00800000E+00  1.00800000E+00  1.60000000E+01  1.00800000E+00
  1.00800000E+00  1.60000000E+01  1.00800000E+00  1.00800000E+00  1.60000000E+01
  1.00800000E+00  1.00800000E+00  1.60000000E+01  1.00800000E+00  1.00800000E+00
  1.60000000E+01  1.00800000E+00  1.00800000E+00  1.60000000E+01  1.00800000E+00
  1.00800000E+00  1.60000000E+01  1.00800000E+00  1.00800000E+00  1.60000000E+01
  1.00800000E+00  1.00800000E+00  1.60000000E+01  1.00800000E+00  1.00800000E+00
  1.60000000E+01  1.00800000E+00  1.00800000E+00  1.60000000E+01  1.00800000E+00
  1.00800000E+00  1.60000000E+01  1.00800000E+00  1.00800000E+00  1.60000000E+01
  1.00800000E+00  1.00800000E+00  1.60000000E+01  1.00800000E+00  1.00800000E+00
  1.60000000E+01  1.00800000E+00  1.00800000E+00  1.60000000E+01  1.00800000E+00
  1.00800000E+00  1.60000000E+01  1.00800000E+00  1.00800000E+00  1.60000000E+01
  1.00800000E+00  1.00800000E+00  1.60000000E+01  1.00800000E+00  1.00800000E+00
  1.60000000E+01  1.00800000E+00  1.00800000E+00  1.60000000E+01  1.00800000E+00
  1.00800000E+00  1.60000000E+01  1.00800000E+00  1.00800000E+00  1.60000000E+01
  1.00800000E+00  1.00800000E+00  1.60000000E+01  1.00800000E+00  1.00800000E+00
  1.60000000E+01  1.00800000E+00  1.00800000E+00  1.60000000E+01  1.00800000E+00
  1.00800000E+00  1.60000000E+01  1.00800000E+00  1.00800000E+00  1.60000000E+01
  1.00800000E+00  1.00800000E+00  1.60000000E+01  1.00800000E+00  1.00800000E+00
  1.60000000E+01  1.00800000E+00  1.00800000E+00  1.60000000E+01  1.00800000E+00
  1.00800000E+00  1.60000000E+01  1.00800000E+00  1.00800000E+00  1.60000000E+01
  1.00800000E+00  1.00800000E+00  1.60000000E+01  1.00800000E+00  1.00800000E+00
  1.60000000E+01  1.00800000E+00  1.00800000E+00  1.60000000E+01  1.00800000E+00
  1.00800000E+00  1.60000000E+01  1.00800000E+00  1.00800000E+00  1.60000000E+01
  1.00800000E+00  1.00800000E+00  1.60000000E+01  1.00800000E+00  1.00800000E+00
  1.60000000E+01  1.00800000E+00  1.00800000E+00  1.60000000E+01  1.00800000E+00
  1.00800000E+00  1.60000000E+01  1.00800000E+00  1.00800000E+00  1.60000000E+01
  1.00800000E+00  1.00800000E+00  1.60000000E+01  1.00800000E+00  1.00800000E+00
  1.60000000E+01  1.00800000E+00  1.00800000E+00  1.60000000E+01  1.00800000E+00
  1.00800000E+00  1.60000000E+01  1.00800000E+00  1.00800000E+00  1.60000000E+01
  1.00800000E+00  1.00800000E+00  1.60000000E+01  1.00800000E+00  1.00800000E+00
  1.60000000E+01  1.00800000E+00  1.00800000E+00  1.60000000E+01  1.00800000E+00
  1.00800000E+00  1.60000000E+01  1.00800000E+00  1.00800000E+00  1.60000000E+01
  1.00800000E+00  1.00800000E+00  1.60000000E+01  1.00800000E+00  1.00800000E+00
  1.60000000E+01  1.00800000E+00  1.00800000E+00  1.60000000E+01  1.00800000E+00
  1.00800000E+00  1.60000000E+01  1.00800000E+00  1.00800000E+00  1.60000000E+01
  1.00800000E+00  1.00800000E+00  1.60000000E+01  1.00800000E+00  1.00800000E+00
  1.60000000E+01  1.00800000E+00  1.00800000E+00  1.60000000E+01  1.00800000E+00
  1.00800000E+00  1.60000000E+01  1.00800000E+00  1.00800000E+00  1.60000000E+01
  1.00800000E+00  1.00800000E+00  1.60000000E+01  1.00800000E+00  1.00800000E+00
  1.60000000E+01  1.00800000E+00  1.00800000E+00  1.60000000E+01  1.00800000E+00
  1.00800000E+00  1.60000000E+01  1.00800000E+00  1.00800000E+00  1.60000000E+01
  1.00800000E+00  1.00800000E+00  1.60000000E+01  1.00800000E+00  1.00800000E+00
  1.60000000E+01  1.00800000E+00  1.00800000E+00  1.60000000E+01  1.00800000E+00
  1.00800000E+00  1.60000000E+01  1.00800000E+00  1.00800000E+00  1.60000000E+01
  1.00800000E+00  1.00800000E+00  1.60000000E+01  1.00800000E+00  1.00800000E+00
  1.60000000E+01  1.00800000E+00  1.00800000E+00  1.60000000E+01  1.00800000E+00
  1.00800000E+00  1.60000000E+01  1.00800000E+00  1.00800000E+00  1.60000000E+01
  1.00800000E+00  1.00800000E+00  1.60000000E+01  1.00800000E+00  1.00800000E+00
  1.60000000E+01  1.00800000E+00  1.00800000E+00  1.60000000E+01  1.00800000E+00
  1.00800000E+00  1.60000000E+01  1.00800000E+00  1.00800000E+00  1.60000000E+01
  1.00800000E+00  1.00800000E+00  1.60000000E+01  1.00800000E+00  1.00800000E+00
  1.60000000E+01  1.00800000E+00  1.00800000E+00  1.60000000E+01  1.00800000E+00
  1.00800000E+00  1.60000000E+01  1.00800000E+00  1.00800000E+00  1.60000000E+01
  1.00800000E+00  1.00800000E+00  1.60000000E+01  1.00800000E+00  1.00800000E+00
  1.60000000E+01  1.00800000E+00  1.00800000E+00  1.60000000E+01  1.00800000E+00
  1.00800000E+00  1.60000000E+01  1.00800000E+00  1.00800000E+00  1.60000000E+01
  1.00800000E+00  1.00800000E+00  1.60000000E+01  1.00800000E+00  1.00800000E+00
  1.60000000E+01  1.00800000E+00  1.00800000E+00  1.60000000E+01  1.00800000E+00
  1.00800000E+00  1.60000000E+01  1.00800000E+00  1.00800000E+00  1.60000000E+01
  1.00800000E+00  1.00800000E+00  1.60000000E+01  1.00800000E+00  1.00800000E+00
  1.60000000E+01  1.00800000E+00  1.00800000E+00  1.60000000E+01  1.00800000E+00
  1.00800000E+00  1.60000000E+01  1.00800000E+00  1.00800000E+00  1.60000000E+01
  1.00800000E+00  1.00800000E+00  1.60000000E+01  1.00800000E+00  1.00800000E+00
  1.60000000E+01  1.00800000E+00  1.00800000E+00  1.60000000E+01  1.00800000E+00
  1.00800000E+00  1.60000000E+01  1.00800000E+00  1.00800000E+00  1.60000000E+01
  1.00800000E+00  1.00800000E+00  1.60000000E+01  1.00800000E+00  1.00800000E+00
  1.60000000E+01  1.00800000E+00  1.00800000E+00  1.60000000E+01  1.00800000E+00
  1.00800000E+00  1.60000000E+01  1.00800000E+00  1.00800000E+00  1.60000000E+01
  1.00800000E+00  1.00800000E+00  1.60000000E+01  1.00800000E+00  1.00800000E+00
  1.60000000E+01  1.00800000E+00  1.00800000E+00  1.60000000E+01  1.00800000E+00
  1.00800000E+00  1.60000000E+01  1.00800000E+00  1.00800000E+00  1.60000000E+01
  1.00800000E+00  1.00800000E+00  1.60000000E+01  1.00800000E+00  1.00800000E+00
  1.60000000E+01  1.00800000E+00  1.00800000E+00  1.60000000E+01  1.00800000E+00
  1.00800000E+00  1.60000000E+01  1.00800000E+00  1.00800000E+00  1.60000000E+01
  1.00800000E+00  1.00800000E+00  1.60000000E+01  1.00800000E+00  1.00800000E+00
  1.60000000E+01  1.00800000E+00  1.00800000E+00  1.60000000E+01  1.00800000E+00
  1.00800000E+00  1.60000000E+01  1.00800000E+00  1.00800000E+00  1.60000000E+01
  1.00800000E+00  1.00800000E+00  1.60000000E+01  1.00800000E+00  1.00800000E+00
  1.60000000E+01  1.00800000E+00  1.00800000E+00  1.60000000E+01  1.00800000E+00
  1.00800000E+00  1.60000000E+01  1.00800000E+00  1.00800000E+00  1.60000000E+01
  1.00800000E+00  1.00800000E+00  1.60000000E+01  1.00800000E+00  1.00800000E+00
  1.60000000E+01  1.00800000E+00  1.00800000E+00  1.60000000E+01  1.00800000E+00
  1.00800000E+00  1.60000000E+01  1.00800000E+00  1.00800000E+00  1.60000000E+01
  1.00800000E+00  1.00800000E+00  1.60000000E+01  1.00800000E+00  1.00800000E+00
  1.60000000E+01  1.00800000E+00  1.00800000E+00  1.60000000E+01  1.00800000E+00
  1.00800000E+00  1.60000000E+01  1.00800000E+00  1.00800000E+00  1.60000000E+01
  1.00800000E+00  1.00800000E+00  1.60000000E+01  1.00800000E+00  1.00800000E+00
  1.60000000E+01  1.00800000E+00  1.00800000E+00  1.60000000E+01  1.00800000E+00
  1.00800000E+00  1.60000000E+01  1.00800000E+00  1.00800000E+00  1.60000000E+01
  1.00800000E+00  1.00800000E+00  1.60000000E+01  1.00800000E+00  1.00800000E+00
  1.60000000E+01  1.00800000E+00  1.00800000E+00  1.60000000E+01  1.00800000E+00
  1.00800000E+00  1.60000000E+01  1.00800000E+00  1.00800000E+00  1.60000000E+01
  1.00800000E+00  1.00800000E+00  1.60000000E+01  1.00800000E+00  1.00800000E+00
  1.60000000E+01  1.00800000E+00  1.00800000E+00  1.60000000E+01  1.00800000E+00
  1.00800000E+00  1.60000000E+01  1.00800000E+00  1.00800000E+00  1.60000000E+01
  1.00800000E+00  1.00800000E+00  1.60000000E+01  1.00800000E+00  1.00800000E+00
  1.60000000E+01  1.00800000E+00  1.00800000E+00  1.60000000E+01  1.00800000E+00
  1.00800000E+00  1.60000000E+01  1.00800000E+00  1.00800000E+00  1.60000000E+01
  1.00800000E+00  1.00800000E+00  1.60000000E+01  1.00800000E+00  1.00800000E+00
  1.60000000E+01  1.00800000E+00  1.00800000E+00  1.60000000E+01  1.00800000E+00
  1.00800000E+00  1.60000000E+01  1.00800000E+00  1.00800000E+00  1.60000000E+01
  1.00800000E+00  1.00800000E+00  1.60000000E+01  1.00800000E+00  1.00800000E+00
  1.60000000E+01  1.00800000E+00  1.00800000E+00  1.60000000E+01  1.00800000E+00
  1.00800000E+00  1.60000000E+01  1.00800000E+00  1.00800000E+00  1.60000000E+01
  1.00800000E+00  1.00800000E+00  1.60000000E+01  1.00800000E+00  1.00800000E+00
  1.60000000E+01  1.00800000E+00  1.00800000E+00  1.60000000E+01  1.00800000E+00
  1.00800000E+00  1.60000000E+01  1.00800000E+00  1.00800000E+00  1.60000000E+01
  1.00800000E+00  1.00800000E+00  1.60000000E+01  1.00800000E+00  1.00800000E+00
  1.60000000E+01  1.00800000E+00  1.00800000E+00  1.60000000E+01  1.00800000E+00
  1.00800000E+00  1.60000000E+01  1.00800000E+00  1.00800000E+00  1.60000000E+01
  1.00800000E+00  1.00800000E+00  1.60000000E+01  1.00800000E+00  1.00800000E+00
  1.60000000E+01  1.00800000E+00  1.00800000E+00  1.60000000E+01  1.00800000E+00
  1.00800000E+00  1.60000000E+01  1.00800000E+00  1.00800000E+00  1.60000000E+01
  1.00800000E+00  1.00800000E+00  1.60000000E+01  1.00800000E+00  1.00800000E+00
  1.60000000E+01  1.00800000E+00  1.00800000E+00  1.60000000E+01  1.00800000E+00
  1.00800000E+00  1.60000000E+01  1.00800000E+00  1.00800000E+00  1.60000000E+01
  1.00800000E+00  1.00800000E+00  1.60000000E+01  1.00800000E+00  1.00800000E+00
  1.60000000E+01  1.00800000E+00  1.00800000E+00  1.60000000E+01  1.00800000E+00
  1.00800000E+00  1.60000000E+01  1.00800000E+00  1.00800000E+00  1.60000000E+01
  1.00800000E+00  1.00800000E+00  1.60000000E+01  1.00800000E+00  1.00800000E+00
  1.60000000E+01  1.00800000E+00  1.00800000E+00  1.60000000E+01  1.00800000E+00
  1.00800000E+00  1.60000000E+01  1.00800000E+00  1.00800000E+00  1.60000000E+01
  1.00800000E+00  1.00800000E+00  1.60000000E+01  1.00800000E+00  1.00800000E+00
  1.60000000E+01  1.00800000E+00  1.00800000E+00  1.60000000E+01  1.00800000E+00
  1.00800000E+00  1.60000000E+01  1.00800000E+00  1.00800000E+00  1.60000000E+01
  1.00800000E+00  1.00800000E+00  1.60000000E+01  1.00800000E+00  1.00800000E+00
  1.60000000E+01  1.00800000E+00  1.00800000E+00  1.60000000E+01  1.00800000E+00
  1.00800000E+00  1.60000000E+01  1.00800000E+00  1.00800000E+00  1.60000000E+01
  1.00800000E+00  1.00800000E+00  1.60000000E+01  1.00800000E+00  1.00800000E+00
  1.60000000E+01  1.00800000E+00  1.00800000E+00  1.60000000E+01  1.00800000E+00
  1.00800000E+00  1.60000000E+01  1.00800000E+00  1.00800000E+00  1.60000000E+01
  1.00800000E+00  1.00800000E+00  1.60000000E+01  1.00800000E+00  1.00800000E+00
  1.60000000E+01  1.00800000E+00  1.00800000E+00  1.60000000E+01  1.00800000E+00
  1.00800000E+00  1.60000000E+01  1.00800000E+00  1.00800000E+00  1.60000000E+01
  1.00800000E+00  1.00800000E+00  1.60000000E+01  1.00800000E+00  1.00800000E+00
  1.60000000E+01  1.00800000E+00  1.00800000E+00  1.60000000E+01  1.00800000E+00
  1.00800000E+00  1.60000000E+01  1.00800000E+00  1.00800000E+00  1.60000000E+01
  1.00800000E+00  1.00800000E+00  1.60000000E+01  1.00800000E+00  1.00800000E+00
  1.60000000E+01  1.00800000E+00  1.00800000E+00  1.60000000E+01  1.00800000E+00
  1.00800000E+00  1.60000000E+01  1.00800000E+00  1.00800000E+00  1.60000000E+01
  1.00800000E+00  1.00800000E+00  1.60000000E+01  1.00800000E+00  1.00800000E+00
  1.60000000E+01  1.00800000E+00  1.00800000E+00  1.60000000E+01  1.00800000E+00
  1.00800000E+00  1.60000000E+01  1.00800000E+00  1.00800000E+00  1.60000000E+01
  1.00800000E+00  1.00800000E+00  1.60000000E+01  1.00800000E+00  1.00800000E+00
  1.60000000E+01  1.00800000E+00  1.00800000E+00  1.60000000E+01  1.00800000E+00
  1.00800000E+00  1.60000000E+01  1.00800000E+00  1.00800000E+00  1.60000000E+01
  1.00800000E+00  1.00800000E+00  1.60000000E+01  1.00800000E+00  1.00800000E+00
  1.60000000E+01  1.00800000E+00  1.00800000E+00  1.60000000E+01  1.00800000E+00
  1.00800000E+00  1.60000000E+01  1.00800000E+00  1.00800000E+00  1.60000000E+01
  1.00800000E+00  1.00800000E+00  1.60000000E+01  1.00800000E+00  1.00800000E+00
  1.60000000E+01  1.00800000E+00  1.00800000E+00  1.60000000E+01  1.00800000E+00
  1.00800000E+00  1.60000000E+01  1.00800000E+00  1.00800000E+00  1.60000000E+01
  1.00800000E+00  1.00800000E+00  1.60000000E+01  1.00800000E+00  1.00800000E+00
  1.60000000E+01  1.00800000E+00  1.00800000E+00  1.60000000E+01  1.00800000E+00
  1.00800000E+00  1.60000000E+01  1.00800000E+00  1.00800000E+00  1.60000000E+01
  1.00800000E+00  1.00800000E+00  1.60000000E+01  1.00800000E+00  1.00800000E+00
  1.60000000E+01  1.00800000E+00  1.00800000E+00  1.60000000E+01  1.00800000E+00
  1.00800000E+00  1.60000000E+01  1.00800000E+00  1.00800000E+00  1.60000000E+01
  1.00800000E+00  1.00800000E+00  1.60000000E+01  1.00800000E+00  1.00800000E+00
  1.60000000E+01  1.00800000E+00  1.00800000E+00  1.60000000E+01  1.00800000E+00
  1.00800000E+00  1.60000000E+01  1.00800000E+00  1.00800000E+00  1.60000000E+01
  1.00800000E+00  1.00800000E+00  1.60000000E+01  1.00800000E+00  1.00800000E+00
  1.60000000E+01  1.00800000E+00  1.00800000E+00  1.60000000E+01  1.00800000E+00
  1.00800000E+00  1.60000000E+01  1.00800000E+00  1.00800000E+00  1.60000000E+01
  1.00800000E+00  1.00800000E+00  1.60000000E+01  1.00800000E+00  1.00800000E+00
  1.60000000E+01  1.00800000E+00  1.00800000E+00  1.60000000E+01  1.00800000E+00
  1.00800000E+00  1.60000000E+01  1.00800000E+00  1.00800000E+00  1.60000000E+01
  1.00800000E+00  1.00800000E+00  1.60000000E+01  1.00800000E+00  1.00800000E+00
  1.60000000E+01  1.00800000E+00  1.00800000E+00  1.60000000E+01  1.00800000E+00
  1.00800000E+00  1.60000000E+01  1.00800000E+00  1.00800000E+00  1.60000000E+01
  1.00800000E+00  1.00800000E+00  1.60000000E+01  1.00800000E+00  1.00800000E+00
  1.60000000E+01  1.00800000E+00  1.00800000E+00  1.60000000E+01  1.00800000E+00
  1.00800000E+00  1.60000000E+01  1.00800000E+00  1.00800000E+00  1.60000000E+01
  1.00800000E+00  1.00800000E+00  1.60000000E+01  1.00800000E+00  1.00800000E+00
  1.60000000E+01  1.00800000E+00  1.00800000E+00  1.60000000E+01  1.00800000E+00
  1.00800000E+00  1.60000000E+01  1.00800000E+00  1.00800000E+00  1.60000000E+01
  1.00800000E+00  1.00800000E+00  1.60000000E+01  1.00800000E+00  1.00800000E+00
  1.60000000E+01  1.00800000E+00  1.00800000E+00  1.60000000E+01  1.00800000E+00
  1.00800000E+00  1.60000000E+01  1.00800000E+00  1.00800000E+00  1.60000000E+01
  1.00800000E+00  1.00800000E+00  1.60000000E+01  1.00800000E+00  1.00800000E+00
  1.60000000E+01  1.00800000E+00  1.00800000E+00  1.60000000E+01  1.00800000E+00
  1.00800000E+00  1.60000000E+01  1.00800000E+00  1.00800000E+00  1.60000000E+01
  1.00800000E+00  1.00800000E+00  1.60000000E+01  1.00800000E+00  1.00800000E+00
  1.60000000E+01  1.00800000E+00  1.00800000E+00  1.60000000E+01  1.00800000E+00
  1.00800000E+00  1.60000000E+01  1.00800000E+00  1.00800000E+00  1.60000000E+01
  1.00800000E+00  1.00800000E+00  1.60000000E+01  1.00800000E+00  1.00800000E+00
  1.60000000E+01  1.00800000E+00  1.00800000E+00  1.60000000E+01  1.00800000E+00
  1.00800000E+00  1.60000000E+01  1.00800000E+00  1.00800000E+00  1.60000000E+01
  1.00800000E+00  1.00800000E+00  1.60000000E+01  1.00800000E+00  1.00800000E+00
  1.60000000E+01  1.00800000E+00  1.00800000E+00  1.60000000E+01  1.00800000E+00
  1.00800000E+00  1.60000000E+01  1.00800000E+00  1.00800000E+00  1.60000000E+01
  1.00800000E+00  1.00800000E+00  1.60000000E+01  1.00800000E+00  1.00800000E+00
  1.60000000E+01  1.00800000E+00  1.00800000E+00  1.60000000E+01  1.00800000E+00
  1.00800000E+00  1.60000000E+01  1.00800000E+00  1.00800000E+00  1.60000000E+01
  1.00800000E+00  1.00800000E+00  1.60000000E+01  1.00800000E+00  1.00800000E+00
  1.60000000E+01  1.00800000E+00  1.00800000E+00  1.60000000E+01  1.00800000E+00
  1.00800000E+00  1.60000000E+01  1.00800000E+00  1.00800000E+00  1.60000000E+01
  1.00800000E+00  1.00800000E+00  1.60000000E+01  1.00800000E+00  1.00800000E+00
  1.60000000E+01  1.00800000E+00  1.00800000E+00  1.60000000E+01  1.00800000E+00
  1.00800000E+00  1.60000000E+01  1.00800000E+00  1.00800000E+00  1.60000000E+01
  1.00800000E+00  1.00800000E+00  1.60000000E+01  1.00800000E+00  1.00800000E+00
  1.60000000E+01  1.00800000E+00  1.00800000E+00  1.60000000E+01  1.00800000E+00
  1.00800000E+00  1.60000000E+01  1.00800000E+00  1.00800000E+00  1.60000000E+01
  1.00800000E+00  1.00800000E+00  1.60000000E+01  1.00800000E+00  1.00800000E+00
  1.60000000E+01  1.00800000E+00  1.00800000E+00  1.60000000E+01  1.00800000E+00
  1.00800000E+00  1.60000000E+01  1.00800000E+00  1.00800000E+00  1.60000000E+01
  1.00800000E+00  1.00800000E+00  1.60000000E+01  1.00800000E+00  1.00800000E+00
  1.60000000E+01  1.00800000E+00  1.00800000E+00  1.60000000E+01  1.00800000E+00
  1.00800000E+00  1.60000000E+01  1.00800000E+00  1.00800000E+00  1.60000000E+01
  1.00800000E+00  1.00800000E+00  1.60000000E+01  1.00800000E+00  1.00800000E+00
  1.60000000E+01  1.00800000E+00  1.00800000E+00  1.60000000E+01  1.00800000E+00
  1.00800000E+00  1.60000000E+01  1.00800000E+00  1.00800000E+00  1.60000000E+01
  1.00800000E+00  1.00800000E+00  1.60000000E+01  1.00800000E+00  1.00800000E+00
  1.60000000E+01  1.00800000E+00  1.00800000E+00  1.60000000E+01  1.00800000E+00
  1.00800000E+00  1.60000000E+01  1.00800000E+00  1.00800000E+00  1.60000000E+01
  1.00800000E+00  1.00800000E+00  1.60000000E+01  1.00800000E+00  1.00800000E+00
  1.60000000E+01  1.00800000E+00  1.00800000E+00  1.60000000E+01  1.00800000E+00
  1.00800000E+00  1.60000000E+01  1.00800000E+00  1.00800000E+00  1.60000000E+01
  1.00800000E+00  1.00800000E+00  1.60000000E+01  1.00800000E+00  1.00800000E+00
  1.60000000E+01  1.00800000E+00  1.00800000E+00  1.60000000E+01  1.00800000E+00
  1.00800000E+00  1.60000000E+01  1.00800000E+00  1.00800000E+00  1.60000000E+01
  1.00800000E+00  1.00800000E+00  1.60000000E+01  1.00800000E+00  1.00800000E+00
  1.60000000E+01  1.00800000E+00  1.00800000E+00  1.60000000E+01  1.00800000E+00
  1.00800000E+00  1.60000000E+01  1.00800000E+00  1.00800000E+00  1.60000000E+01
  1.00800000E+00  1.00800000E+00  1.60000000E+01  1.00800000E+00  1.00800000E+00
  1.60000000E+01  1.00800000E+00  1.00800000E+00  1.60000000E+01  1.00800000E+00
  1.00800000E+00  1.60000000E+01  1.00800000E+00  1.00800000E+00  1.60000000E+01
  1.00800000E+00  1.00800000E+00  1.60000000E+01  1.00800000E+00  1.00800000E+00
  1.60000000E+01  1.00800000E+00  1.00800000E+00  1.60000000E+01  1.00800000E+00
  1.00800000E+00  1.60000000E+01  1.00800000E+00  1.00800000E+00  1.60000000E+01
  1.00800000E+00  1.00800000E+00  1.60000000E+01  1.00800000E+00  1.00800000E+00
  1.60000000E+01  1.00800000E+00  1.00800000E+00  1.60000000E+01  1.00800000E+00
  1.00800000E+00  1.60000000E+01  1.00800000E+00  1.00800000E+00  1.60000000E+01
  1.00800000E+00  1.00800000E+00  1.60000000E+01  1.00800000E+00  1.00800000E+00
  1.60000000E+01  1.00800000E+00  1.00800000E+00  1.60000000E+01  1.00800000E+00
  1.00800000E+00  1.60000000E+01  1.00800000E+00  1.00800000E+00  1.60000000E+01
  1.00800000E+00  1.00800000E+00  1.60000000E+01  1.00800000E+00  1.00800000E+00
  1.60000000E+01  1.00800000E+00  1.00800000E+00  1.60000000E+01  1.00800000E+00
  1.00800000E+00  1.60000000E+01  1.00800000E+00  1.00800000E+00  1.60000000E+01
  1.00800000E+00  1.00800000E+00  1.60000000E+01  1.00800000E+00  1.00800000E+00
  1.60000000E+01  1.00800000E+00  1.00800000E+00  1.60000000E+01  1.00800000E+00
  1.00800000E+00  1.60000000E+01  1.00800000E+00  1.00800000E+00  1.60000000E+01
  1.00800000E+00  1.00800000E+00  1.60000000E+01  1.00800000E+00  1.00800000E+00
  1.60000000E+01  1.00800000E+00  1.00800000E+00  1.60000000E+01  1.00800000E+00
  1.00800000E+00  1.60000000E+01  1.00800000E+00  1.00800000E+00  1.60000000E+01
  1.00800000E+00  1.00800000E+00  1.60000000E+01  1.00800000E+00  1.00800000E+00
  1.60000000E+01  1.00800000E+00  1.00800000E+00  1.60000000E+01  1.00800000E+00
  1.00800000E+00  1.60000000E+01  1.00800000E+00  1.00800000E+00  1.60000000E+01
  1.00800000E+00  1.00800000E+00  1.60000000E+01  1.00800000E+00  1.00800000E+00
  1.60000000E+01  1.00800000E+00  1.00800000E+00  1.60000000E+01  1.00800000E+00
  1.00800000E+00  1.60000000E+01  1.00800000E+00  1.00800000E+00  1.60000000E+01
  1.00800000E+00  1.00800000E+00  1.60000000E+01  1.00800000E+00  1.00800000E+00
  1.60000000E+01  1.00800000E+00  1.00800000E+00  1.60000000E+01  1.00800000E+00
  1.00800000E+00  1.60000000E+01  1.00800000E+00  1.00800000E+00  1.60000000E+01
  1.00800000E+00  1.00800000E+00  1.60000000E+01  1.00800000E+00  1.00800000E+00
  1.60000000E+01  1.00800000E+00  1.00800000E+00  1.60000000E+01  1.00800000E+00
  1.00800000E+00  1.60000000E+01  1.00800000E+00  1.00800000E+00  1.60000000E+01
  1.00800000E+00  1.00800000E+00  1.60000000E+01  1.00800000E+00  1.00800000E+00
  1.60000000E+01  1.00800000E+00  1.00800000E+00  1.60000000E+01  1.00800000E+00
  1.00800000E+00  1.60000000E+01  1.00800000E+00  1.00800000E+00  1.60000000E+01
  1.00800000E+00  1.00800000E+00  1.60000000E+01  1.00800000E+00  1.00800000E+00
  1.60000000E+01  1.00800000E+00  1.00800000E+00  1.60000000E+01  1.00800000E+00
  1.00800000E+00  1.60000000E+01  1.00800000E+00  1.00800000E+00  1.60000000E+01
  1.00800000E+00  1.00800000E+00  1.60000000E+01  1.00800000E+00  1.00800000E+00
  1.60000000E+01  1.00800000E+00  1.00800000E+00  1.60000000E+01  1.00800000E+00
  1.00800000E+00  1.60000000E+01  1.00800000E+00  1.00800000E+00  1.60000000E+01
  1.00800000E+00  1.00800000E+00  1.60000000E+01  1.00800000E+00  1.00800000E+00
  1.60000000E+01  1.00800000E+00  1.00800000E+00  1.60000000E+01  1.00800000E+00
  1.00800000E+00  1.60000000E+01  1.00800000E+00  1.00800000E+00  1.60000000E+01
  1.00800000E+00  1.00800000E+00  1.60000000E+01  1.00800000E+00  1.00800000E+00
  1.60000000E+01  1.00800000E+00  1.00800000E+00  1.60000000E+01  1.00800000E+00
  1.00800000E+00  1.60000000E+01  1.00800000E+00  1.00800000E+00  1.60000000E+01
  1.00800000E+00  1.00800000E+00  1.60000000E+01  1.00800000E+00  1.00800000E+00
  1.60000000E+01  1.00800000E+00  1.00800000E+00  1.60000000E+01  1.00800000E+00
  1.00800000E+00  1.60000000E+01  1.00800000E+00  1.00800000E+00  1.60000000E+01
  1.00800000E+00  1.00800000E+00  1.60000000E+01  1.00800000E+00  1.00800000E+00
  1.60000000E+01  1.00800000E+00  1.00800000E+00  1.60000000E+01  1.00800000E+00
  1.00800000E+00  1.60000000E+01  1.00800000E+00  1.00800000E+00  1.60000000E+01
  1.00800000E+00  1.00800000E+00  1.60000000E+01  1.00800000E+00  1.00800000E+00
  1.60000000E+01  1.00800000E+00  1.00800000E+00  1.60000000E+01  1.00800000E+00
  1.00800000E+00  1.60000000E+01  1.00800000E+00  1.00800000E+00  1.60000000E+01
  1.00800000E+00  1.00800000E+00  1.60000000E+01  1.00800000E+00  1.00800000E+00
  1.60000000E+01  1.00800000E+00  1.00800000E+00  1.60000000E+01  1.00800000E+00
  1.00800000E+00  1.60000000E+01  1.00800000E+00  1.00800000E+00  1.60000000E+01
  1.00800000E+00  1.00800000E+00  1.60000000E+01  1.00800000E+00  1.00800000E+00
  1.60000000E+01  1.00800000E+00  1.00800000E+00  1.60000000E+01  1.00800000E+00
  1.00800000E+00  1.60000000E+01  1.00800000E+00  1.00800000E+00  1.60000000E+01
  1.00800000E+00  1.00800000E+00  1.60000000E+01  1.00800000E+00  1.00800000E+00
  1.60000000E+01  1.00800000E+00  1.00800000E+00  1.60000000E+01  1.00800000E+00
  1.00800000E+00  1.60000000E+01  1.00800000E+00  1.00800000E+00  1.60000000E+01
  1.00800000E+00  1.00800000E+00  1.60000000E+01  1.00800000E+00  1.00800000E+00
  1.60000000E+01  1.00800000E+00  1.00800000E+00  1.60000000E+01  1.00800000E+00
  1.00800000E+00  1.60000000E+01  1.00800000E+00  1.00800000E+00  1.60000000E+01
  1.00800000E+00  1.00800000E+00  1.60000000E+01  1.00800000E+00  1.00800000E+00
  1.60000000E+01  1.00800000E+00  1.00800000E+00  1.60000000E+01  1.00800000E+00
  1.00800000E+00  1.60000000E+01  1.00800000E+00  1.00800000E+00  1.60000000E+01
  1.00800000E+00  1.00800000E+00  1.60000000E+01  1.00800000E+00  1.00800000E+00
  1.60000000E+01  1.00800000E+00  1.00800000E+00  1.60000000E+01  1.00800000E+00
  1.00800000E+00  1.60000000E+01  1.00800000E+00  1.00800000E+00  1.60000000E+01
  1.00800000E+00  1.00800000E+00  1.60000000E+01  1.00800000E+00  1.00800000E+00
  1.60000000E+01  1.00800000E+00  1.00800000E+00  1.60000000E+01  1.00800000E+00
  1.00800000E+00  1.60000000E+01  1.00800000E+00  1.00800000E+00  1.60000000E+01
  1.00800000E+00  1.00800000E+00  1.60000000E+01  1.00800000E+00  1.00800000E+00
  1.60000000E+01  1.00800000E+00  1.00800000E+00  1.60000000E+01  1.00800000E+00
  1.00800000E+00  1.60000000E+01  1.00800000E+00  1.00800000E+00  1.60000000E+01
  1.00800000E+00  1.00800000E+00  1.60000000E+01  1.00800000E+00  1.00800000E+00
  1.60000000E+01  1.00800000E+00  1.00800000E+00  1.60000000E+01  1.00800000E+00
  1.00800000E+00  1.60000000E+01  1.00800000E+00  1.00800000E+00  1.60000000E+01
  1.00800000E+00  1.00800000E+00  1.60000000E+01  1.00800000E+00  1.00800000E+00
  1.60000000E+01  1.00800000E+00  1.00800000E+00  1.60000000E+01  1.00800000E+00
  1.00800000E+00  1.60000000E+01  1.00800000E+00  1.00800000E+00  1.60000000E+01
  1.00800000E+00  1.00800000E+00  1.60000000E+01  1.00800000E+00  1.00800000E+00
  1.60000000E+01  1.00800000E+00  1.00800000E+00  1.60000000E+01  1.00800000E+00
  1.00800000E+00  1.60000000E+01  1.00800000E+00  1.00800000E+00  1.60000000E+01
  1.00800000E+00  1.00800000E+00  1.60000000E+01  1.00800000E+00  1.00800000E+00
  1.60000000E+01  1.00800000E+00  1.00800000E+00  1.60000000E+01  1.00800000E+00
  1.00800000E+00  1.60000000E+01  1.00800000E+00  1.00800000E+00  1.60000000E+01
  1.00800000E+00  1.00800000E+00  1.60000000E+01  1.00800000E+00  1.00800000E+00
  1.60000000E+01  1.00800000E+00  1.00800000E+00  1.60000000E+01  1.00800000E+00
  1.00800000E+00  1.60000000E+01  1.00800000E+00  1.00800000E+00  1.60000000E+01
  1.00800000E+00  1.00800000E+00  1.60000000E+01  1.00800000E+00  1.00800000E+00
  1.60000000E+01  1.00800000E+00  1.00800000E+00  1.60000000E+01  1.00800000E+00
  1.00800000E+00  1.60000000E+01  1.00800000E+00  1.00800000E+00  1.60000000E+01
  1.00800000E+00  1.00800000E+00  1.60000000E+01  1.00800000E+00  1.00800000E+00
  1.60000000E+01  1.00800000E+00  1.00800000E+00  1.60000000E+01  1.00800000E+00
  1.00800000E+00  1.60000000E+01  1.00800000E+00  1.00800000E+00  1.60000000E+01
  1.00800000E+00  1.00800000E+00  1.60000000E+01  1.00800000E+00  1.00800000E+00
  1.60000000E+01  1.00800000E+00  1.00800000E+00  1.60000000E+01  1.00800000E+00
  1.00800000E+00  1.60000000E+01  1.00800000E+00  1.00800000E+00  1.60000000E+01
  1.00800000E+00  1.00800000E+00  1.60000000E+01  1.00800000E+00  1.00800000E+00
  1.60000000E+01  1.00800000E+00  1.00800000E+00  1.60000000E+01  1.00800000E+00
  1.00800000E+00  1.60000000E+01  1.00800000E+00  1.00800000E+00  1.60000000E+01
  1.00800000E+00  1.00800000E+00  1.60000000E+01  1.00800000E+00  1.00800000E+00
  1.60000000E+01  1.00800000E+00  1.00800000E+00  1.60000000E+01  1.00800000E+00
  1.00800000E+00  1.60000000E+01  1.00800000E+00  1.00800000E+00  1.60000000E+01
  1.00800000E+00  1.00800000E+00  1.60000000E+01  1.00800000E+00  1.00800000E+00
  1.60000000E+01  1.00800000E+00  1.00800000E+00  1.60000000E+01  1.00800000E+00
  1.00800000E+00  1.60000000E+01  1.00800000E+00  1.00800000E+00  1.60000000E+01
  1.00800000E+00  1.00800000E+00  1.60000000E+01  1.00800000E+00  1.00800000E+00
  1.60000000E+01  1.00800000E+00  1.00800000E+00  1.60000000E+01  1.00800000E+00
  1.00800000E+00  1.60000000E+01  1.00800000E+00  1.00800000E+00  1.60000000E+01
  1.00800000E+00  1.00800000E+00  1.60000000E+01  1.00800000E+00  1.00800000E+00
  1.60000000E+01  1.00800000E+00  1.00800000E+00  1.60000000E+01  1.00800000E+00
  1.00800000E+00  1.60000000E+01  1.00800000E+00  1.00800000E+00  1.60000000E+01
  1.00800000E+00  1.00800000E+00  1.60000000E+01  1.00800000E+00  1.00800000E+00
  1.60000000E+01  1.00800000E+00  1.00800000E+00  1.60000000E+01  1.00800000E+00
  1.00800000E+00  1.60000000E+01  1.00800000E+00  1.00800000E+00  1.60000000E+01
  1.00800000E+00  1.00800000E+00  1.60000000E+01  1.00800000E+00  1.00800000E+00
  1.60000000E+01  1.00800000E+00  1.00800000E+00  1.60000000E+01  1.00800000E+00
  1.00800000E+00  1.60000000E+01  1.00800000E+00  1.00800000E+00  1.60000000E+01
  1.00800000E+00  1.00800000E+00  1.60000000E+01  1.00800000E+00  1.00800000E+00
  1.60000000E+01  1.00800000E+00  1.00800000E+00  1.60000000E+01  1.00800000E+00
  1.00800000E+00  1.60000000E+01  1.00800000E+00  1.00800000E+00  1.60000000E+01
  1.00800000E+00  1.00800000E+00  1.60000000E+01  1.00800000E+00  1.00800000E+00
  1.60000000E+01  1.00800000E+00  1.00800000E+00  1.60000000E+01  1.00800000E+00
  1.00800000E+00  1.60000000E+01  1.00800000E+00  1.00800000E+00  1.60000000E+01
  1.00800000E+00  1.00800000E+00  1.60000000E+01  1.00800000E+00  1.00800000E+00
  1.60000000E+01  1.00800000E+00  1.00800000E+00  1.60000000E+01  1.00800000E+00
  1.00800000E+00  1.60000000E+01  1.00800000E+00  1.00800000E+00  1.60000000E+01
  1.00800000E+00  1.00800000E+00  1.60000000E+01  1.00800000E+00  1.00800000E+00
  1.60000000E+01  1.00800000E+00  1.00800000E+00  1.60000000E+01  1.00800000E+00
  1.00800000E+00  1.60000000E+01  1.00800000E+00  1.00800000E+00  1.60000000E+01
  1.00800000E+00  1.00800000E+00  1.60000000E+01  1.00800000E+00  1.00800000E+00
  1.60000000E+01  1.00800000E+00  1.00800000E+00  1.60000000E+01  1.00800000E+00
  1.00800000E+00  1.60000000E+01  1.00800000E+00  1.00800000E+00  1.60000000E+01
  1.00800000E+00  1.00800000E+00  1.60000000E+01  1.00800000E+00  1.00800000E+00
  1.60000000E+01  1.00800000E+00  1.00800000E+00  1.60000000E+01  1.00800000E+00
  1.00800000E+00  1.60000000E+01  1.00800000E+00  1.00800000E+00  1.60000000E+01
  1.00800000E+00  1.00800000E+00  1.60000000E+01  1.00800000E+00  1.00800000E+00
  1.60000000E+01  1.00800000E+00  1.00800000E+00  1.60000000E+01  1.00800000E+00
  1.00800000E+00  1.60000000E+01  1.00800000E+00  1.00800000E+00  1.60000000E+01
  1.00800000E+00  1.00800000E+00  1.60000000E+01  1.00800000E+00  1.00800000E+00
  1.60000000E+01  1.00800000E+00  1.00800000E+00  1.60000000E+01  1.00800000E+00
  1.00800000E+00  1.60000000E+01  1.00800000E+00  1.00800000E+00  1.60000000E+01
  1.00800000E+00  1.00800000E+00  1.60000000E+01  1.00800000E+00  1.00800000E+00
  1.60000000E+01  1.00800000E+00  1.00800000E+00  1.60000000E+01  1.00800000E+00
  1.00800000E+00  1.60000000E+01  1.00800000E+00  1.00800000E+00  1.60000000E+01
  1.00800000E+00  1.00800000E+00  1.60000000E+01  1.00800000E+00  1.00800000E+00
  1.60000000E+01  1.00800000E+00  1.00800000E+00  1.60000000E+01  1.00800000E+00
  1.00800000E+00  1.60000000E+01  1.00800000E+00  1.00800000E+00  1.60000000E+01
  1.00800000E+00  1.00800000E+00  1.60000000E+01  1.00800000E+00  1.00800000E+00
  1.60000000E+01  1.00800000E+00  1.00800000E+00  1.60000000E+01  1.00800000E+00
  1.00800000E+00  1.60000000E+01  1.00800000E+00  1.00800000E+00  1.60000000E+01
  1.00800000E+00  1.00800000E+00  1.60000000E+01  1.00800000E+00  1.00800000E+00
  1.60000000E+01  1.00800000E+00  1.00800000E+00  1.60000000E+01  1.00800000E+00
  1.00800000E+00  1.60000000E+01  1.00800000E+00  1.00800000E+00  1.60000000E+01
  1.00800000E+00  1.00800000E+00  1.60000000E+01  1.00800000E+00  1.00800000E+00
  1.60000000E+01  1.00800000E+00  1.00800000E+00  1.60000000E+01  1.00800000E+00
  1.00800000E+00  1.60000000E+01  1.00800000E+00  1.00800000E+00  1.60000000E+01
  1.00800000E+00  1.00800000E+00  1.60000000E+01  1.00800000E+00  1.00800000E+00
  1.60000000E+01  1.00800000E+00  1.00800000E+00  1.60000000E+01  1.00800000E+00
  1.00800000E+00  1.60000000E+01  1.00800000E+00  1.00800000E+00  1.60000000E+01
  1.00800000E+00  1.00800000E+00  1.60000000E+01  1.00800000E+00  1.00800000E+00
  1.60000000E+01  1.00800000E+00  1.00800000E+00  1.60000000E+01  1.00800000E+00
  1.00800000E+00  1.60000000E+01  1.00800000E+00  1.00800000E+00  1.60000000E+01
  1.00800000E+00  1.00800000E+00  1.60000000E+01  1.00800000E+00  1.00800000E+00
  1.60000000E+01  1.00800000E+00  1.00800000E+00  1.60000000E+01  1.00800000E+00
  1.00800000E+00  1.60000000E+01  1.00800000E+00  1.00800000E+00  1.60000000E+01
  1.00800000E+00  1.00800000E+00  1.60000000E+01  1.00800000E+00  1.00800000E+00
  1.60000000E+01  1.00800000E+00  1.00800000E+00  1.60000000E+01  1.00800000E+00
  1.00800000E+00  1.60000000E+01  1.00800000E+00  1.00800000E+00  1.60000000E+01
  1.00800000E+00  1.00800000E+00  1.60000000E+01  1.00800000E+00  1.00800000E+00
  1.60000000E+01  1.00800000E+00  1.00800000E+00  1.60000000E+01  1.00800000E+00
  1.00800000E+00  1.60000000E+01  1.00800000E+00  1.00800000E+00  1.60000000E+01
  1.00800000E+00  1.00800000E+00  1.60000000E+01  1.00800000E+00  1.00800000E+00
  1.60000000E+01  1.00800000E+00  1.00800000E+00  1.60000000E+01  1.00800000E+00
  1.00800000E+00  1.60000000E+01  1.00800000E+00  1.00800000E+00  1.60000000E+01
  1.00800000E+00  1.00800000E+00  1.60000000E+01  1.00800000E+00  1.00800000E+00
  1.60000000E+01  1.00800000E+00  1.00800000E+00  1.60000000E+01  1.00800000E+00
  1.00800000E+00  1.60000000E+01  1.00800000E+00  1.00800000E+00  1.60000000E+01
  1.00800000E+00  1.00800000E+00  1.60000000E+01  1.00800000E+00  1.00800000E+00
  1.60000000E+01  1.00800000E+00  1.00800000E+00  1.60000000E+01  1.00800000E+00
  1.00800000E+00  1.60000000E+01  1.00800000E+00  1.00800000E+00  1.60000000E+01
  1.00800000E+00  1.00800000E+00  1.60000000E+01  1.00800000E+00  1.00800000E+00
  1.60000000E+01  1.00800000E+00  1.00800000E+00  1.60000000E+01  1.00800000E+00
  1.00800000E+00  1.60000000E+01  1.00800000E+00  1.00800000E+00  1.60000000E+01
  1.00800000E+00  1.00800000E+00  1.60000000E+01  1.00800000E+00  1.00800000E+00
  1.60000000E+01  1.00800000E+00  1.00800000E+00  1.60000000E+01  1.00800000E+00
  1.00800000E+00  1.60000000E+01  1.00800000E+00  1.00800000E+00  1.60000000E+01
  1.00800000E+00  1.00800000E+00  1.60000000E+01  1.00800000E+00  1.00800000E+00
  1.60000000E+01  1.00800000E+00  1.00800000E+00  1.60000000E+01  1.00800000E+00
  1.00800000E+00  1.60000000E+01  1.00800000E+00  1.00800000E+00  1.60000000E+01
  1.00800000E+00  1.00800000E+00  1.60000000E+01  1.00800000E+00  1.00800000E+00
  1.60000000E+01  1.00800000E+00  1.00800000E+00  1.60000000E+01  1.00800000E+00
  1.00800000E+00  1.60000000E+01  1.00800000E+00  1.00800000E+00  1.60000000E+01
  1.00800000E+00  1.00800000E+00  1.60000000E+01  1.00800000E+00  1.00800000E+00
  1.60000000E+01  1.00800000E+00  1.00800000E+00  1.60000000E+01  1.00800000E+00
  1.00800000E+00  1.60000000E+01  1.00800000E+00  1.00800000E+00  1.60000000E+01
  1.00800000E+00  1.00800000E+00  1.60000000E+01  1.00800000E+00  1.00800000E+00
  1.60000000E+01  1.00800000E+00  1.00800000E+00  1.60000000E+01  1.00800000E+00
  1.00800000E+00  1.60000000E+01  1.00800000E+00  1.00800000E+00  1.60000000E+01
  1.00800000E+00  1.00800000E+00  1.60000000E+01  1.00800000E+00  1.00800000E+00
  1.60000000E+01  1.00800000E+00  1.00800000E+00  1.60000000E+01  1.00800000E+00
  1.00800000E+00  1.60000000E+01  1.00800000E+00  1.00800000E+00  1.60000000E+01
  1.00800000E+00  1.00800000E+00  1.60000000E+01  1.00800000E+00  1.00800000E+00
  1.60000000E+01  1.00800000E+00  1.00800000E+00  1.60000000E+01  1.00800000E+00
  1.00800000E+00  1.60000000E+01  1.00800000E+00  1.00800000E+00  1.60000000E+01
  1.00800000E+00  1.00800000E+00  1.60000000E+01  1.00800000E+00  1.00800000E+00
  1.60000000E+01  1.00800000E+00  1.00800000E+00  1.60000000E+01  1.00800000E+00
  1.00800000E+00  1.60000000E+01  1.00800000E+00  1.00800000E+00  1.60000000E+01
  1.00800000E+00  1.00800000E+00  1.60000000E+01  1.00800000E+00  1.00800000E+00
  1.60000000E+01  1.00800000E+00  1.00800000E+00  1.60000000E+01  1.00800000E+00
  1.00800000E+00  1.60000000E+01  1.00800000E+00  1.00800000E+00  1.60000000E+01
  1.00800000E+00  1.00800000E+00  1.60000000E+01  1.00800000E+00  1.00800000E+00
  1.60000000E+01  1.00800000E+00  1.00800000E+00  1.60000000E+01  1.00800000E+00
  1.00800000E+00  1.60000000E+01  1.00800000E+00  1.00800000E+00  1.60000000E+01
  1.00800000E+00  1.00800000E+00  1.60000000E+01  1.00800000E+00  1.00800000E+00
  1.60000000E+01  1.00800000E+00  1.00800000E+00  1.60000000E+01  1.00800000E+00
  1.00800000E+00  1.60000000E+01  1.00800000E+00  1.00800000E+00  1.60000000E+01
  1.00800000E+00  1.00800000E+00  1.60000000E+01  1.00800000E+00  1.00800000E+00
  1.60000000E+01  1.00800000E+00  1.00800000E+00  1.60000000E+01  1.00800000E+00
  1.00800000E+00  1.60000000E+01  1.00800000E+00  1.00800000E+00  1.60000000E+01
  1.00800000E+00  1.00800000E+00  1.60000000E+01  1.00800000E+00  1.00800000E+00
  1.60000000E+01  1.00800000E+00  1.00800000E+00  1.60000000E+01  1.00800000E+00
  1.00800000E+00  1.60000000E+01  1.00800000E+00  1.00800000E+00  1.60000000E+01
  1.00800000E+00  1.00800000E+00  1.60000000E+01  1.00800000E+00  1.00800000E+00
  1.60000000E+01  1.00800000E+00  1.00800000E+00  1.60000000E+01  1.00800000E+00
  1.00800000E+00  1.60000000E+01  1.00800000E+00  1.00800000E+00  1.60000000E+01
  1.00800000E+00  1.00800000E+00  1.60000000E+01  1.00800000E+00  1.00800000E+00
  1.60000000E+01  1.00800000E+00  1.00800000E+00  1.60000000E+01  1.00800000E+00
  1.00800000E+00  1.60000000E+01  1.00800000E+00  1.00800000E+00  1.60000000E+01
  1.00800000E+00  1.00800000E+00  1.60000000E+01  1.00800000E+00  1.00800000E+00
  1.60000000E+01  1.00800000E+00  1.00800000E+00  1.60000000E+01  1.00800000E+00
  1.00800000E+00  1.60000000E+01  1.00800000E+00  1.00800000E+00  1.60000000E+01
  1.00800000E+00  1.00800000E+00  1.60000000E+01  1.00800000E+00  1.00800000E+00
  1.60000000E+01  1.00800000E+00  1.00800000E+00  1.60000000E+01  1.00800000E+00
  1.00800000E+00  1.60000000E+01  1.00800000E+00  1.00800000E+00  1.60000000E+01
  1.00800000E+00  1.00800000E+00  1.60000000E+01  1.00800000E+00  1.00800000E+00
  1.60000000E+01  1.00800000E+00  1.00800000E+00  1.60000000E+01  1.00800000E+00
  1.00800000E+00  1.60000000E+01  1.00800000E+00  1.00800000E+00  1.60000000E+01
  1.00800000E+00  1.00800000E+00  1.60000000E+01  1.00800000E+00  1.00800000E+00
  1.60000000E+01  1.00800000E+00  1.00800000E+00  1.60000000E+01  1.00800000E+00
  1.00800000E+00  1.60000000E+01  1.00800000E+00  1.00800000E+00  1.60000000E+01
  1.00800000E+00  1.00800000E+00  1.60000000E+01  1.00800000E+00  1.00800000E+00
  1.60000000E+01  1.00800000E+00  1.00800000E+00  1.60000000E+01  1.00800000E+00
  1.00800000E+00  1.60000000E+01  1.00800000E+00  1.00800000E+00  1.60000000E+01
  1.00800000E+00  1.00800000E+00  1.60000000E+01  1.00800000E+00  1.00800000E+00
  1.60000000E+01  1.00800000E+00  1.00800000E+00  1.60000000E+01  1.00800000E+00
  1.00800000E+00  1.60000000E+01  1.00800000E+00  1.00800000E+00  1.60000000E+01
  1.00800000E+00  1.00800000E+00  1.60000000E+01  1.00800000E+00  1.00800000E+00
  1.60000000E+01  1.00800000E+00  1.00800000E+00  1.60000000E+01  1.00800000E+00
  1.00800000E+00  1.60000000E+01  1.00800000E+00  1.00800000E+00  1.60000000E+01
  1.00800000E+00  1.00800000E+00  1.60000000E+01  1.00800000E+00  1.00800000E+00
  1.60000000E+01  1.00800000E+00  1.00800000E+00  1.60000000E+01  1.00800000E+00
  1.00800000E+00  1.60000000E+01  1.00800000E+00  1.00800000E+00  1.60000000E+01
  1.00800000E+00  1.00800000E+00  1.60000000E+01  1.00800000E+00  1.00800000E+00
  1.60000000E+01  1.00800000E+00  1.00800000E+00  1.60000000E+01  1.00800000E+00
  1.00800000E+00  1.60000000E+01  1.00800000E+00  1.00800000E+00  1.60000000E+01
  1.00800000E+00  1.00800000E+00  1.60000000E+01  1.00800000E+00  1.00800000E+00
  1.60000000E+01  1.00800000E+00  1.00800000E+00  1.60000000E+01  1.00800000E+00
  1.00800000E+00  1.60000000E+01  1.00800000E+00  1.00800000E+00  1.60000000E+01
  1.00800000E+00  1.00800000E+00  1.60000000E+01  1.00800000E+00  1.00800000E+00
  1.60000000E+01  1.00800000E+00  1.00800000E+00  1.60000000E+01  1.00800000E+00
  1.00800000E+00  1.60000000E+01  1.00800000E+00  1.00800000E+00  1.60000000E+01
  1.00800000E+00  1.00800000E+00  1.60000000E+01  1.00800000E+00  1.00800000E+00
  1.60000000E+01  1.00800000E+00  1.00800000E+00  1.60000000E+01  1.00800000E+00
  1.00800000E+00  1.60000000E+01  1.00800000E+00  1.00800000E+00  1.60000000E+01
  1.00800000E+00  1.00800000E+00  1.60000000E+01  1.00800000E+00  1.00800000E+00
  1.60000000E+01  1.00800000E+00  1.00800000E+00  1.60000000E+01  1.00800000E+00
  1.00800000E+00  1.60000000E+01  1.00800000E+00  1.00800000E+00  1.60000000E+01
  1.00800000E+00  1.00800000E+00  1.60000000E+01  1.00800000E+00  1.00800000E+00
  1.60000000E+01  1.00800000E+00  1.00800000E+00  1.60000000E+01  1.00800000E+00
  1.00800000E+00  1.60000000E+01  1.00800000E+00  1.00800000E+00  1.60000000E+01
  1.00800000E+00  1.00800000E+00  1.60000000E+01  1.00800000E+00  1.00800000E+00
  1.60000000E+01  1.00800000E+00  1.00800000E+00  1.60000000E+01  1.00800000E+00
  1.00800000E+00  1.60000000E+01  1.00800000E+00  1.00800000E+00  1.60000000E+01
  1.00800000E+00  1.00800000E+00  1.60000000E+01  1.00800000E+00  1.00800000E+00
  1.60000000E+01  1.00800000E+00  1.00800000E+00  1.60000000E+01  1.00800000E+00
  1.00800000E+00  1.60000000E+01  1.00800000E+00  1.00800000E+00  1.60000000E+01
  1.00800000E+00  1.00800000E+00  1.60000000E+01  1.00800000E+00  1.00800000E+00
  1.60000000E+01  1.00800000E+00  1.00800000E+00  1.60000000E+01  1.00800000E+00
  1.00800000E+00  1.60000000E+01  1.00800000E+00  1.00800000E+00  1.60000000E+01
  1.00800000E+00  1.00800000E+00  1.60000000E+01  1.00800000E+00  1.00800000E+00
  1.60000000E+01  1.00800000E+00  1.00800000E+00  1.60000000E+01  1.00800000E+00
  1.00800000E+00  1.60000000E+01  1.00800000E+00  1.00800000E+00  1.60000000E+01
  1.00800000E+00  1.00800000E+00  1.60000000E+01  1.00800000E+00  1.00800000E+00
  1.60000000E+01  1.00800000E+00  1.00800000E+00  1.60000000E+01  1.00800000E+00
  1.00800000E+00  1.60000000E+01  1.00800000E+00  1.00800000E+00  1.60000000E+01
  1.00800000E+00  1.00800000E+00  1.60000000E+01  1.00800000E+00  1.00800000E+00
  1.60000000E+01  1.00800000E+00  1.00800000E+00  1.60000000E+01  1.00800000E+00
  1.00800000E+00  1.60000000E+01  1.00800000E+00  1.00800000E+00  1.60000000E+01
  1.00800000E+00  1.00800000E+00  1.60000000E+01  1.00800000E+00  1.00800000E+00
  1.60000000E+01  1.00800000E+00  1.00800000E+00  1.60000000E+01  1.00800000E+00
  1.00800000E+00  1.60000000E+01  1.00800000E+00  1.00800000E+00  1.60000000E+01
  1.00800000E+00  1.00800000E+00  1.60000000E+01  1.00800000E+00  1.00800000E+00
  1.60000000E+01  1.00800000E+00  1.00800000E+00  1.60000000E+01  1.00800000E+00
  1.00800000E+00  1.60000000E+01  1.00800000E+00  1.00800000E+00  1.60000000E+01
  1.00800000E+00  1.00800000E+00  1.60000000E+01  1.00800000E+00  1.00800000E+00
  1.60000000E+01  1.00800000E+00  1.00800000E+00  1.60000000E+01  1.00800000E+00
  1.00800000E+00  1.60000000E+01  1.00800000E+00  1.00800000E+00  1.60000000E+01
  1.00800000E+00  1.00800000E+00  1.60000000E+01  1.00800000E+00  1.00800000E+00
  1.60000000E+01  1.00800000E+00  1.00800000E+00  1.60000000E+01  1.00800000E+00
  1.00800000E+00  1.60000000E+01  1.00800000E+00  1.00800000E+00  1.60000000E+01
  1.00800000E+00  1.00800000E+00  1.60000000E+01  1.00800000E+00  1.00800000E+00
  1.60000000E+01  1.00800000E+00  1.00800000E+00  1.60000000E+01  1.00800000E+00
  1.00800000E+00  1.60000000E+01  1.00800000E+00  1.00800000E+00  1.60000000E+01
  1.00800000E+00  1.00800000E+00  1.60000000E+01  1.00800000E+00  1.00800000E+00
  1.60000000E+01  1.00800000E+00  1.00800000E+00  1.60000000E+01  1.00800000E+00
  1.00800000E+00  1.60000000E+01  1.00800000E+00  1.00800000E+00  1.60000000E+01
  1.00800000E+00  1.00800000E+00  1.60000000E+01  1.00800000E+00  1.00800000E+00
  1.60000000E+01  1.00800000E+00  1.00800000E+00  1.60000000E+01  1.00800000E+00
  1.00800000E+00  1.60000000E+01  1.00800000E+00  1.00800000E+00  1.60000000E+01
  1.00800000E+00  1.00800000E+00  1.60000000E+01  1.00800000E+00  1.00800000E+00
  1.60000000E+01  1.00800000E+00  1.00800000E+00  1.60000000E+01  1.00800000E+00
  1.00800000E+00  1.60000000E+01  1.00800000E+00  1.00800000E+00  1.60000000E+01
  1.00800000E+00  1.00800000E+00  1.60000000E+01  1.00800000E+00  1.00800000E+00
  1.60000000E+01  1.00800000E+00  1.00800000E+00  1.60000000E+01  1.00800000E+00
  1.00800000E+00  1.60000000E+01  1.00800000E+00  1.00800000E+00  1.60000000E+01
  1.00800000E+00  1.00800000E+00  1.60000000E+01  1.00800000E+00  1.00800000E+00
  1.60000000E+01  1.00800000E+00  1.00800000E+00  1.60000000E+01  1.00800000E+00
  1.00800000E+00  1.60000000E+01  1.00800000E+00  1.00800000E+00  1.60000000E+01
  1.00800000E+00  1.00800000E+00  1.60000000E+01  1.00800000E+00  1.00800000E+00
  1.60000000E+01  1.00800000E+00  1.00800000E+00  1.60000000E+01  1.00800000E+00
  1.00800000E+00  1.60000000E+01  1.00800000E+00  1.00800000E+00  1.60000000E+01
  1.00800000E+00  1.00800000E+00  1.60000000E+01  1.00800000E+00  1.00800000E+00
  1.60000000E+01  1.00800000E+00  1.00800000E+00  1.60000000E+01  1.00800000E+00
  1.00800000E+00  1.60000000E+01  1.00800000E+00  1.00800000E+00  1.60000000E+01
  1.00800000E+00  1.00800000E+00  1.60000000E+01  1.00800000E+00  1.00800000E+00
  1.60000000E+01  1.00800000E+00  1.00800000E+00  1.60000000E+01  1.00800000E+00
  1.00800000E+00  1.60000000E+01  1.00800000E+00  1.00800000E+00  1.60000000E+01
  1.00800000E+00  1.00800000E+00  1.60000000E+01  1.00800000E+00  1.00800000E+00
  1.60000000E+01  1.00800000E+00  1.00800000E+00  1.60000000E+01  1.00800000E+00
  1.00800000E+00  1.60000000E+01  1.00800000E+00  1.00800000E+00  1.60000000E+01
  1.00800000E+00  1.00800000E+00  1.60000000E+01  1.00800000E+00  1.00800000E+00
  1.60000000E+01  1.00800000E+00  1.00800000E+00  1.60000000E+01  1.00800000E+00
  1.00800000E+00  1.60000000E+01  1.00800000E+00  1.00800000E+00  1.60000000E+01
  1.00800000E+00  1.00800000E+00  1.60000000E+01  1.00800000E+00  1.00800000E+00
  1.60000000E+01  1.00800000E+00  1.00800000E+00  1.60000000E+01  1.00800000E+00
  1.00800000E+00  1.60000000E+01  1.00800000E+00  1.00800000E+00  1.60000000E+01
  1.00800000E+00  1.00800000E+00  1.60000000E+01  1.00800000E+00  1.00800000E+00
  1.60000000E+01  1.00800000E+00  1.00800000E+00  1.60000000E+01  1.00800000E+00
  1.00800000E+00  1.60000000E+01  1.00800000E+00  1.00800000E+00  1.60000000E+01
  1.00800000E+00  1.00800000E+00  1.60000000E+01  1.00800000E+00  1.00800000E+00
  1.60000000E+01  1.00800000E+00  1.00800000E+00  1.60000000E+01  1.00800000E+00
  1.00800000E+00  1.60000000E+01  1.00800000E+00  1.00800000E+00  1.60000000E+01
  1.00800000E+00  1.00800000E+00  1.60000000E+01  1.00800000E+00  1.00800000E+00
  1.60000000E+01  1.00800000E+00  1.00800000E+00  1.60000000E+01  1.00800000E+00
  1.00800000E+00  1.60000000E+01  1.00800000E+00  1.00800000E+00  1.60000000E+01
  1.00800000E+00  1.00800000E+00  1.60000000E+01  1.00800000E+00  1.00800000E+00
  1.60000000E+01  1.00800000E+00  1.00800000E+00  1.60000000E+01  1.00800000E+00
  1.00800000E+00  1.60000000E+01  1.00800000E+00  1.00800000E+00  1.60000000E+01
  1.00800000E+00  1.00800000E+00  1.60000000E+01  1.00800000E+00  1.00800000E+00
  1.60000000E+01  1.00800000E+00  1.00800000E+00  1.60000000E+01  1.00800000E+00
  1.00800000E+00  1.60000000E+01  1.00800000E+00  1.00800000E+00  1.60000000E+01
  1.00800000E+00  1.00800000E+00  1.60000000E+01  1.00800000E+00  1.00800000E+00
  1.60000000E+01  1.00800000E+00  1.00800000E+00  1.60000000E+01  1.00800000E+00
  1.00800000E+00  1.60000000E+01  1.00800000E+00  1.00800000E+00  1.60000000E+01
  1.00800000E+00  1.00800000E+00  1.60000000E+01  1.00800000E+00  1.00800000E+00
  1.60000000E+01  1.00800000E+00  1.00800000E+00  1.60000000E+01  1.00800000E+00
  1.00800000E+00  1.60000000E+01  1.00800000E+00  1.00800000E+00  1.60000000E+01
  1.00800000E+00  1.00800000E+00  1.60000000E+01  1.00800000E+00  1.00800000E+00
  1.60000000E+01  1.00800000E+00  1.00800000E+00  1.60000000E+01  1.00800000E+00
  1.00800000E+00  1.60000000E+01  1.00800000E+00  1.00800000E+00  1.60000000E+01
  1.00800000E+00  1.00800000E+00  1.60000000E+01  1.00800000E+00  1.00800000E+00
  1.60000000E+01  1.00800000E+00  1.00800000E+00  1.60000000E+01  1.00800000E+00
  1.00800000E+00  1.60000000E+01  1.00800000E+00  1.00800000E+00  1.60000000E+01
  1.00800000E+00  1.00800000E+00  1.60000000E+01  1.00800000E+00  1.00800000E+00
  1.60000000E+01  1.00800000E+00  1.00800000E+00  1.60000000E+01  1.00800000E+00
  1.00800000E+00  1.60000000E+01  1.00800000E+00  1.00800000E+00  1.60000000E+01
  1.00800000E+00  1.00800000E+00  1.60000000E+01  1.00800000E+00  1.00800000E+00
  1.60000000E+01  1.00800000E+00  1.00800000E+00  1.60000000E+01  1.00800000E+00
  1.00800000E+00  1.60000000E+01  1.00800000E+00  1.00800000E+00  1.60000000E+01
  1.00800000E+00  1.00800000E+00  1.60000000E+01  1.00800000E+00  1.00800000E+00
  1.60000000E+01  1.00800000E+00  1.00800000E+00  1.60000000E+01  1.00800000E+00
  1.00800000E+00  1.60000000E+01  1.00800000E+00  1.00800000E+00  1.60000000E+01
  1.00800000E+00  1.00800000E+00  1.60000000E+01  1.00800000E+00  1.00800000E+00
  1.60000000E+01  1.00800000E+00  1.00800000E+00  1.60000000E+01  1.00800000E+00
  1.00800000E+00  1.60000000E+01  1.00800000E+00  1.00800000E+00  1.60000000E+01
  1.00800000E+00  1.00800000E+00  1.60000000E+01  1.00800000E+00  1.00800000E+00
  1.60000000E+01  1.00800000E+00  1.00800000E+00  1.60000000E+01  1.00800000E+00
  1.00800000E+00  1.60000000E+01  1.00800000E+00  1.00800000E+00  1.60000000E+01
  1.00800000E+00  1.00800000E+00  1.60000000E+01  1.00800000E+00  1.00800000E+00
  1.60000000E+01  1.00800000E+00  1.00800000E+00  1.60000000E+01  1.00800000E+00
  1.00800000E+00  1.60000000E+01  1.00800000E+00  1.00800000E+00  1.60000000E+01
  1.00800000E+00  1.00800000E+00  1.60000000E+01  1.00800000E+00  1.00800000E+00
  1.60000000E+01  1.00800000E+00  1.00800000E+00  1.60000000E+01  1.00800000E+00
  1.00800000E+00  1.60000000E+01  1.00800000E+00  1.00800000E+00  1.60000000E+01
  1.00800000E+00  1.00800000E+00  1.60000000E+01  1.00800000E+00  1.00800000E+00
  1.60000000E+01  1.00800000E+00  1.00800000E+00  1.60000000E+01  1.00800000E+00
  1.00800000E+00  1.60000000E+01  1.00800000E+00  1.00800000E+00  1.60000000E+01
  1.00800000E+00  1.00800000E+00  1.60000000E+01  1.00800000E+00  1.00800000E+00
  1.60000000E+01  1.00800000E+00  1.00800000E+00  1.60000000E+01  1.00800000E+00
  1.00800000E+00  1.60000000E+01  1.00800000E+00  1.00800000E+00  1.60000000E+01
  1.00800000E+00  1.00800000E+00  1.60000000E+01  1.00800000E+00  1.00800000E+00
  1.60000000E+01  1.00800000E+00  1.00800000E+00  1.60000000E+01  1.00800000E+00
  1.00800000E+00  1.60000000E+01  1.00800000E+00  1.00800000E+00  1.60000000E+01
  1.00800000E+00  1.00800000E+00  1.60000000E+01  1.00800000E+00  1.00800000E+00
  1.60000000E+01  1.00800000E+00  1.00800000E+00  1.60000000E+01  1.00800000E+00
  1.00800000E+00  1.60000000E+01  1.00800000E+00  1.00800000E+00  1.60000000E+01
  1.00800000E+00  1.00800000E+00  1.60000000E+01  1.00800000E+00  1.00800000E+00
  1.60000000E+01  1.00800000E+00  1.00800000E+00  1.60000000E+01  1.00800000E+00
  1.00800000E+00  1.60000000E+01  1.00800000E+00  1.00800000E+00  1.60000000E+01
  1.00800000E+00  1.00800000E+00  1.60000000E+01  1.00800000E+00  1.00800000E+00
  1.60000000E+01  1.00800000E+00  1.00800000E+00  1.60000000E+01  1.00800000E+00
  1.00800000E+00  1.60000000E+01  1.00800000E+00  1.00800000E+00  1.60000000E+01
  1.00800000E+00  1.00800000E+00  1.60000000E+01  1.00800000E+00  1.00800000E+00
  1.60000000E+01  1.00800000E+00  1.00800000E+00  1.60000000E+01  1.00800000E+00
  1.00800000E+00  1.60000000E+01  1.00800000E+00  1.00800000E+00  1.60000000E+01
  1.00800000E+00  1.00800000E+00  1.60000000E+01  1.00800000E+00  1.00800000E+00
  1.60000000E+01  1.00800000E+00  1.00800000E+00  1.60000000E+01  1.00800000E+00
  1.00800000E+00  1.60000000E+01  1.00800000E+00  1.00800000E+00  1.60000000E+01
  1.00800000E+00  1.00800000E+00  1.60000000E+01  1.00800000E+00  1.00800000E+00
  1.60000000E+01  1.00800000E+00  1.00800000E+00  1.60000000E+01  1.00800000E+00
  1.00800000E+00  1.60000000E+01  1.00800000E+00  1.00800000E+00  1.60000000E+01
  1.00800000E+00  1.00800000E+00  1.60000000E+01  1.00800000E+00  1.00800000E+00
  1.60000000E+01  1.00800000E+00  1.00800000E+00  1.60000000E+01  1.00800000E+00
  1.00800000E+00  1.60000000E+01  1.00800000E+00  1.00800000E+00  1.60000000E+01
  1.00800000E+00  1.00800000E+00  1.60000000E+01  1.00800000E+00  1.00800000E+00
  1.60000000E+01  1.00800000E+00  1.00800000E+00  1.60000000E+01  1.00800000E+00
  1.00800000E+00  1.60000000E+01  1.00800000E+00  1.00800000E+00  1.60000000E+01
  1.00800000E+00  1.00800000E+00  1.60000000E+01  1.00800000E+00  1.00800000E+00
  1.60000000E+01  1.00800000E+00  1.00800000E+00  1.60000000E+01  1.00800000E+00
  1.00800000E+00  1.60000000E+01  1.00800000E+00  1.00800000E+00  1.60000000E+01
  1.00800000E+00  1.00800000E+00  1.60000000E+01  1.00800000E+00  1.00800000E+00
  1.60000000E+01  1.00800000E+00  1.00800000E+00  1.60000000E+01  1.00800000E+00
  1.00800000E+00  1.60000000E+01  1.00800000E+00  1.00800000E+00  1.60000000E+01
  1.00800000E+00  1.00800000E+00  1.60000000E+01  1.00800000E+00  1.00800000E+00
  1.60000000E+01  1.00800000E+00  1.00800000E+00  1.60000000E+01  1.00800000E+00
  1.00800000E+00  1.60000000E+01  1.00800000E+00  1.00800000E+00  1.60000000E+01
  1.00800000E+00  1.00800000E+00  1.60000000E+01  1.00800000E+00  1.00800000E+00
  1.60000000E+01  1.00800000E+00  1.00800000E+00  1.60000000E+01  1.00800000E+00
  1.00800000E+00  1.60000000E+01  1.00800000E+00  1.00800000E+00  1.60000000E+01
  1.00800000E+00  1.00800000E+00  1.60000000E+01  1.00800000E+00  1.00800000E+00
  1.60000000E+01  1.00800000E+00  1.00800000E+00  1.60000000E+01  1.00800000E+00
  1.00800000E+00  1.60000000E+01  1.00800000E+00  1.00800000E+00  1.60000000E+01
  1.00800000E+00  1.00800000E+00  1.60000000E+01  1.00800000E+00  1.00800000E+00
  1.60000000E+01  1.00800000E+00  1.00800000E+00  1.60000000E+01  1.00800000E+00
  1.00800000E+00  1.60000000E+01  1.00800000E+00  1.00800000E+00  1.60000000E+01
  1.00800000E+00  1.00800000E+00  1.60000000E+01  1.00800000E+00  1.00800000E+00
  1.60000000E+01  1.00800000E+00  1.00800000E+00  1.60000000E+01  1.00800000E+00
  1.00800000E+00  1.60000000E+01  1.00800000E+00  1.00800000E+00  1.60000000E+01
  1.00800000E+00  1.00800000E+00  1.60000000E+01  1.00800000E+00  1.00800000E+00
  1.60000000E+01  1.00800000E+00  1.00800000E+00  1.60000000E+01  1.00800000E+00
  1.00800000E+00  1.60000000E+01  1.00800000E+00  1.00800000E+00  1.60000000E+01
  1.00800000E+00  1.00800000E+00  1.60000000E+01  1.00800000E+00  1.00800000E+00
  1.60000000E+01  1.00800000E+00  1.00800000E+00  1.60000000E+01  1.00800000E+00
  1.00800000E+00  1.60000000E+01  1.00800000E+00  1.00800000E+00  1.60000000E+01
  1.00800000E+00  1.00800000E+00  1.60000000E+01  1.00800000E+00  1.00800000E+00
  1.60000000E+01  1.00800000E+00  1.00800000E+00  1.60000000E+01  1.00800000E+00
  1.00800000E+00  1.60000000E+01  1.00800000E+00  1.00800000E+00  1.60000000E+01
  1.00800000E+00  1.00800000E+00  1.60000000E+01  1.00800000E+00  1.00800000E+00
  1.60000000E+01  1.00800000E+00  1.00800000E+00  1.60000000E+01  1.00800000E+00
  1.00800000E+00  1.60000000E+01  1.00800000E+00  1.00800000E+00  1.60000000E+01
  1.00800000E+00  1.00800000E+00  1.60000000E+01  1.00800000E+00  1.00800000E+00
  1.60000000E+01  1.00800000E+00  1.00800000E+00  1.60000000E+01  1.00800000E+00
  1.00800000E+00  1.60000000E+01  1.00800000E+00  1.00800000E+00  1.60000000E+01
  1.00800000E+00  1.00800000E+00  1.60000000E+01  1.00800000E+00  1.00800000E+00
  1.60000000E+01  1.00800000E+00  1.00800000E+00  1.60000000E+01  1.00800000E+00
  1.00800000E+00  1.60000000E+01  1.00800000E+00  1.00800000E+00  1.60000000E+01
  1.00800000E+00  1.00800000E+00  1.60000000E+01  1.00800000E+00  1.00800000E+00
  1.60000000E+01  1.00800000E+00  1.00800000E+00  1.60000000E+01  1.00800000E+00
  1.00800000E+00  1.60000000E+01  1.00800000E+00  1.00800000E+00  1.60000000E+01
  1.00800000E+00  1.00800000E+00  1.60000000E+01  1.00800000E+00  1.00800000E+00
  1.60000000E+01  1.00800000E+00  1.00800000E+00  1.60000000E+01  1.00800000E+00
  1.00800000E+00  1.60000000E+01  1.00800000E+00  1.00800000E+00  1.60000000E+01
  1.00800000E+00  1.00800000E+00  1.60000000E+01  1.00800000E+00  1.00800000E+00
  1.60000000E+01  1.00800000E+00  1.00800000E+00  1.60000000E+01  1.00800000E+00
  1.00800000E+00  1.60000000E+01  1.00800000E+00  1.00800000E+00  1.60000000E+01
  1.00800000E+00  1.00800000E+00  1.60000000E+01  1.00800000E+00  1.00800000E+00
  1.60000000E+01  1.00800000E+00  1.00800000E+00  1.60000000E+01  1.00800000E+00
  1.00800000E+00  1.60000000E+01  1.00800000E+00  1.00800000E+00  1.60000000E+01
  1.00800000E+00  1.00800000E+00  1.60000000E+01  1.00800000E+00  1.00800000E+00
  1.60000000E+01  1.00800000E+00  1.00800000E+00  1.60000000E+01  1.00800000E+00
  1.00800000E+00  1.60000000E+01  1.00800000E+00  1.00800000E+00  1.60000000E+01
  1.00800000E+00  1.00800000E+00  1.60000000E+01  1.00800000E+00  1.00800000E+00
  1.60000000E+01  1.00800000E+00  1.00800000E+00  1.60000000E+01  1.00800000E+00
  1.00800000E+00  1.60000000E+01  1.00800000E+00  1.00800000E+00  1.60000000E+01
  1.00800000E+00  1.00800000E+00  1.60000000E+01  1.00800000E+00  1.00800000E+00
  1.60000000E+01  1.00800000E+00  1.00800000E+00  1.60000000E+01  1.00800000E+00
  1.00800000E+00  1.60000000E+01  1.00800000E+00  1.00800000E+00  1.60000000E+01
  1.00800000E+00  1.00800000E+00  1.60000000E+01  1.00800000E+00  1.00800000E+00
  1.60000000E+01  1.00800000E+00  1.00800000E+00  1.60000000E+01  1.00800000E+00
  1.00800000E+00  1.60000000E+01  1.00800000E+00  1.00800000E+00  1.60000000E+01
  1.00800000E+00  1.00800000E+00  1.60000000E+01  1.00800000E+00  1.00800000E+00
  1.60000000E+01  1.00800000E+00  1.00800000E+00  1.60000000E+01  1.00800000E+00
  1.00800000E+00  1.60000000E+01  1.00800000E+00  1.00800000E+00  1.60000000E+01
  1.00800000E+00  1.00800000E+00  1.60000000E+01  1.00800000E+00  1.00800000E+00
  1.60000000E+01  1.00800000E+00  1.00800000E+00  1.60000000E+01  1.00800000E+00
  1.00800000E+00  1.60000000E+01  1.00800000E+00  1.00800000E+00  1.60000000E+01
  1.00800000E+00  1.00800000E+00  1.60000000E+01  1.00800000E+00  1.00800000E+00
  1.60000000E+01  1.00800000E+00  1.00800000E+00  1.60000000E+01  1.00800000E+00
  1.00800000E+00  1.60000000E+01  1.00800000E+00  1.00800000E+00  1.60000000E+01
  1.00800000E+00  1.00800000E+00  1.60000000E+01  1.00800000E+00  1.00800000E+00
  1.60000000E+01  1.00800000E+00  1.00800000E+00  1.60000000E+01  1.00800000E+00
  1.00800000E+00  1.60000000E+01  1.00800000E+00  1.00800000E+00  1.60000000E+01
  1.00800000E+00  1.00800000E+00  1.60000000E+01  1.00800000E+00  1.00800000E+00
  1.60000000E+01  1.00800000E+00  1.00800000E+00  1.60000000E+01  1.00800000E+00
  1.00800000E+00  1.60000000E+01  1.00800000E+00  1.00800000E+00  1.60000000E+01
  1.00800000E+00  1.00800000E+00  1.60000000E+01  1.00800000E+00  1.00800000E+00
  1.60000000E+01  1.00800000E+00  1.00800000E+00  1.60000000E+01  1.00800000E+00
  1.00800000E+00  1.60000000E+01  1.00800000E+00  1.00800000E+00  1.60000000E+01
  1.00800000E+00  1.00800000E+00  1.60000000E+01  1.00800000E+00  1.00800000E+00
  1.60000000E+01  1.00800000E+00  1.00800000E+00  1.60000000E+01  1.00800000E+00
  1.00800000E+00  1.60000000E+01  1.00800000E+00  1.00800000E+00  1.60000000E+01
  1.00800000E+00  1.00800000E+00  1.60000000E+01  1.00800000E+00  1.00800000E+00
  1.60000000E+01  1.00800000E+00  1.00800000E+00  1.60000000E+01  1.00800000E+00
  1.00800000E+00  1.60000000E+01  1.00800000E+00  1.00800000E+00  1.60000000E+01
  1.00800000E+00  1.00800000E+00  1.60000000E+01  1.00800000E+00  1.00800000E+00
  1.60000000E+01  1.00800000E+00  1.00800000E+00  1.60000000E+01  1.00800000E+00
  1.00800000E+00  1.60000000E+01  1.00800000E+00  1.00800000E+00  1.60000000E+01
  1.00800000E+00  1.00800000E+00  1.60000000E+01  1.00800000E+00  1.00800000E+00
  1.60000000E+01  1.00800000E+00  1.00800000E+00  1.60000000E+01  1.00800000E+00
  1.00800000E+00  1.60000000E+01  1.00800000E+00  1.00800000E+00  1.60000000E+01
  1.00800000E+00  1.00800000E+00  1.60000000E+01  1.00800000E+00  1.00800000E+00
  1.60000000E+01  1.00800000E+00  1.00800000E+00  1.60000000E+01  1.00800000E+00
  1.00800000E+00  1.60000000E+01  1.00800000E+00  1.00800000E+00  1.60000000E+01
  1.00800000E+00  1.00800000E+00  1.60000000E+01  1.00800000E+00  1.00800000E+00
  1.60000000E+01  1.00800000E+00  1.00800000E+00  1.60000000E+01  1.00800000E+00
  1.00800000E+00  1.60000000E+01  1.00800000E+00  1.00800000E+00  1.60000000E+01
  1.00800000E+00  1.00800000E+00  1.60000000E+01  1.00800000E+00  1.00800000E+00
  1.60000000E+01  1.00800000E+00  1.00800000E+00  1.60000000E+01  1.00800000E+00
  1.00800000E+00  1.60000000E+01  1.00800000E+00  1.00800000E+00  1.60000000E+01
  1.00800000E+00  1.00800000E+00  1.60000000E+01  1.00800000E+00  1.00800000E+00
  1.60000000E+01  1.00800000E+00  1.00800000E+00  1.60000000E+01  1.00800000E+00
  1.00800000E+00  1.60000000E+01  1.00800000E+00  1.00800000E+00  1.60000000E+01
  1.00800000E+00  1.00800000E+00  1.60000000E+01  1.00800000E+00  1.00800000E+00
  1.60000000E+01  1.00800000E+00  1.00800000E+00  1.60000000E+01  1.00800000E+00
  1.00800000E+00  1.60000000E+01  1.00800000E+00  1.00800000E+00  1.60000000E+01
  1.00800000E+00  1.00800000E+00  1.60000000E+01  1.00800000E+00  1.00800000E+00
  1.60000000E+01  1.00800000E+00  1.00800000E+00  1.60000000E+01  1.00800000E+00
  1.00800000E+00  1.60000000E+01  1.00800000E+00  1.00800000E+00  1.60000000E+01
  1.00800000E+00  1.00800000E+00  1.60000000E+01  1.00800000E+00  1.00800000E+00
  1.60000000E+01  1.00800000E+00  1.00800000E+00  1.60000000E+01  1.00800000E+00
  1.00800000E+00  1.60000000E+01  1.00800000E+00  1.00800000E+00  1.60000000E+01
  1.00800000E+00  1.00800000E+00  1.60000000E+01  1.00800000E+00  1.00800000E+00
  1.60000000E+01  1.00800000E+00  1.00800000E+00  1.60000000E+01  1.00800000E+00
  1.00800000E+00  1.60000000E+01  1.00800000E+00  1.00800000E+00  1.60000000E+01
  1.00800000E+00  1.00800000E+00  1.60000000E+01  1.00800000E+00  1.00800000E+00
  1.60000000E+01  1.00800000E+00  1.00800000E+00  1.60000000E+01  1.00800000E+00
  1.00800000E+00  1.60000000E+01  1.00800000E+00  1.00800000E+00  1.60000000E+01
  1.00800000E+00  1.00800000E+00  1.60000000E+01  1.00800000E+00  1.00800000E+00
  1.60000000E+01  1.00800000E+00  1.00800000E+00  1.60000000E+01  1.00800000E+00
  1.00800000E+00  1.60000000E+01  1.00800000E+00  1.00800000E+00  1.60000000E+01
  1.00800000E+00  1.00800000E+00  1.60000000E+01  1.00800000E+00  1.00800000E+00
  1.60000000E+01  1.00800000E+00  1.00800000E+00  1.60000000E+01  1.00800000E+00
  1.00800000E+00  1.60000000E+01  1.00800000E+00  1.00800000E+00  1.60000000E+01
  1.00800000E+00  1.00800000E+00  1.60000000E+01  1.00800000E+00  1.00800000E+00
  1.60000000E+01  1.00800000E+00  1.00800000E+00  1.60000000E+01  1.00800000E+00
  1.00800000E+00  1.60000000E+01  1.00800000E+00  1.00800000E+00  1.60000000E+01
  1.00800000E+00  1.00800000E+00  1.60000000E+01  1.00800000E+00  1.00800000E+00
  1.60000000E+01  1.00800000E+00  1.00800000E+00  1.60000000E+01  1.00800000E+00
  1.00800000E+00  1.60000000E+01  1.00800000E+00  1.00800000E+00  1.60000000E+01
  1.00800000E+00  1.00800000E+00  1.60000000E+01  1.00800000E+00  1.00800000E+00
  1.60000000E+01  1.00800000E+00  1.00800000E+00  1.60000000E+01  1.00800000E+00
  1.00800000E+00  1.60000000E+01  1.00800000E+00  1.00800000E+00  1.60000000E+01
  1.00800000E+00  1.00800000E+00  1.60000000E+01  1.00800000E+00  1.00800000E+00
  1.60000000E+01  1.00800000E+00  1.00800000E+00  1.60000000E+01  1.00800000E+00
  1.00800000E+00  1.60000000E+01  1.00800000E+00  1.00800000E+00  1.60000000E+01
  1.00800000E+00  1.00800000E+00  1.60000000E+01  1.00800000E+00  1.00800000E+00
  1.60000000E+01  1.00800000E+00  1.00800000E+00  1.60000000E+01  1.00800000E+00
  1.00800000E+00  1.60000000E+01  1.00800000E+00  1.00800000E+00  1.60000000E+01
  1.00800000E+00  1.00800000E+00  1.60000000E+01  1.00800000E+00  1.00800000E+00
  1.60000000E+01  1.00800000E+00  1.00800000E+00  1.60000000E+01  1.00800000E+00
  1.00800000E+00  1.60000000E+01  1.00800000E+00  1.00800000E+00  1.60000000E+01
  1.00800000E+00  1.00800000E+00  1.60000000E+01  1.00800000E+00  1.00800000E+00
  1.60000000E+01  1.00800000E+00  1.00800000E+00  1.60000000E+01  1.00800000E+00
  1.00800000E+00  1.60000000E+01  1.00800000E+00  1.00800000E+00  1.60000000E+01
  1.00800000E+00  1.00800000E+00  1.60000000E+01  1.00800000E+00  1.00800000E+00
  1.60000000E+01  1.00800000E+00  1.00800000E+00  1.60000000E+01  1.00800000E+00
  1.00800000E+00  1.60000000E+01  1.00800000E+00  1.00800000E+00  1.60000000E+01
  1.00800000E+00  1.00800000E+00  1.60000000E+01  1.00800000E+00  1.00800000E+00
  1.60000000E+01  1.00800000E+00  1.00800000E+00  1.60000000E+01  1.00800000E+00
  1.00800000E+00  1.60000000E+01  1.00800000E+00  1.00800000E+00  1.60000000E+01
  1.00800000E+00  1.00800000E+00  1.60000000E+01  1.00800000E+00  1.00800000E+00
  1.60000000E+01  1.00800000E+00  1.00800000E+00  1.60000000E+01  1.00800000E+00
  1.00800000E+00  1.60000000E+01  1.00800000E+00  1.00800000E+00  1.60000000E+01
  1.00800000E+00  1.00800000E+00  1.60000000E+01  1.00800000E+00  1.00800000E+00
  1.60000000E+01  1.00800000E+00  1.00800000E+00  1.60000000E+01  1.00800000E+00
  1.00800000E+00  1.60000000E+01  1.00800000E+00  1.00800000E+00  1.60000000E+01
  1.00800000E+00  1.00800000E+00  1.60000000E+01  1.00800000E+00  1.00800000E+00
  1.60000000E+01  1.00800000E+00  1.00800000E+00  1.60000000E+01  1.00800000E+00
  1.00800000E+00  1.60000000E+01  1.00800000E+00  1.00800000E+00  1.60000000E+01
  1.00800000E+00  1.00800000E+00  1.60000000E+01  1.00800000E+00  1.00800000E+00
  1.60000000E+01  1.00800000E+00  1.00800000E+00  1.60000000E+01  1.00800000E+00
  1.00800000E+00  1.60000000E+01  1.00800000E+00  1.00800000E+00  1.60000000E+01
  1.00800000E+00  1.00800000E+00  1.60000000E+01  1.00800000E+00  1.00800000E+00
  1.60000000E+01  1.00800000E+00  1.00800000E+00  1.60000000E+01  1.00800000E+00
  1.00800000E+00  1.60000000E+01  1.00800000E+00  1.00800000E+00  1.60000000E+01
  1.00800000E+00  1.00800000E+00  1.60000000E+01  1.00800000E+00  1.00800000E+00
  1.60000000E+01  1.00800000E+00  1.00800000E+00  1.60000000E+01  1.00800000E+00
  1.00800000E+00  1.60000000E+01  1.00800000E+00  1.00800000E+00  1.60000000E+01
  1.00800000E+00  1.00800000E+00  1.60000000E+01  1.00800000E+00  1.00800000E+00
  1.60000000E+01  1.00800000E+00  1.00800000E+00  1.60000000E+01  1.00800000E+00
  1.00800000E+00  1.60000000E+01  1.00800000E+00  1.00800000E+00  1.60000000E+01
  1.00800000E+00  1.00800000E+00  1.60000000E+01  1.00800000E+00  1.00800000E+00
  1.60000000E+01  1.00800000E+00  1.00800000E+00  1.60000000E+01  1.00800000E+00
  1.00800000E+00  1.60000000E+01  1.00800000E+00  1.00800000E+00  1.60000000E+01
  1.00800000E+00  1.00800000E+00  1.60000000E+01  1.00800000E+00  1.00800000E+00
  1.60000000E+01  1.00800000E+00  1.00800000E+00  1.60000000E+01  1.00800000E+00
  1.00800000E+00  1.60000000E+01  1.00800000E+00  1.00800000E+00  1.60000000E+01
  1.00800000E+00  1.00800000E+00  1.60000000E+01  1.00800000E+00  1.00800000E+00
  1.60000000E+01  1.00800000E+00  1.00800000E+00  1.60000000E+01  1.00800000E+00
  1.00800000E+00  1.60000000E+01  1.00800000E+00  1.00800000E+00  1.60000000E+01
  1.00800000E+00  1.00800000E+00  1.60000000E+01  1.00800000E+00  1.00800000E+00
  1.60000000E+01  1.00800000E+00  1.00800000E+00  1.60000000E+01  1.00800000E+00
  1.00800000E+00  1.60000000E+01  1.00800000E+00  1.00800000E+00  1.60000000E+01
  1.00800000E+00  1.00800000E+00  1.60000000E+01  1.00800000E+00  1.00800000E+00
  1.60000000E+01  1.00800000E+00  1.00800000E+00  1.60000000E+01  1.00800000E+00
  1.00800000E+00  1.60000000E+01  1.00800000E+00  1.00800000E+00  1.60000000E+01
  1.00800000E+00  1.00800000E+00  1.60000000E+01  1.00800000E+00  1.00800000E+00
  1.60000000E+01  1.00800000E+00  1.00800000E+00  1.60000000E+01  1.00800000E+00
  1.00800000E+00  1.60000000E+01  1.00800000E+00  1.00800000E+00  1.60000000E+01
  1.00800000E+00  1.00800000E+00  1.60000000E+01  1.00800000E+00  1.00800000E+00
  1.60000000E+01  1.00800000E+00  1.00800000E+00  1.60000000E+01  1.00800000E+00
  1.00800000E+00  1.60000000E+01  1.00800000E+00  1.00800000E+00  1.60000000E+01
  1.00800000E+00  1.00800000E+00  1.60000000E+01  1.00800000E+00  1.00800000E+00
  1.60000000E+01  1.00800000E+00  1.00800000E+00  1.60000000E+01  1.00800000E+00
  1.00800000E+00  1.60000000E+01  1.00800000E+00  1.00800000E+00  1.60000000E+01
  1.00800000E+00  1.00800000E+00  1.60000000E+01  1.00800000E+00  1.00800000E+00
  1.60000000E+01  1.00800000E+00  1.00800000E+00  1.60000000E+01  1.00800000E+00
  1.00800000E+00  1.60000000E+01  1.00800000E+00  1.00800000E+00  1.60000000E+01
  1.00800000E+00  1.00800000E+00  1.60000000E+01  1.00800000E+00  1.00800000E+00
  1.60000000E+01  1.00800000E+00  1.00800000E+00  1.60000000E+01  1.00800000E+00
  1.00800000E+00  1.60000000E+01  1.00800000E+00  1.00800000E+00  1.60000000E+01
  1.00800000E+00  1.00800000E+00  1.60000000E+01  1.00800000E+00  1.00800000E+00
  1.60000000E+01  1.00800000E+00  1.00800000E+00  1.60000000E+01  1.00800000E+00
  1.00800000E+00  1.60000000E+01  1.00800000E+00  1.00800000E+00  1.60000000E+01
  1.00800000E+00  1.00800000E+00  1.60000000E+01  1.00800000E+00  1.00800000E+00
  1.60000000E+01  1.00800000E+00  1.00800000E+00  1.60000000E+01  1.00800000E+00
  1.00800000E+00  1.60000000E+01  1.00800000E+00  1.00800000E+00  1.60000000E+01
  1.00800000E+00  1.00800000E+00  1.60000000E+01  1.00800000E+00  1.00800000E+00
  1.60000000E+01  1.00800000E+00  1.00800000E+00  1.60000000E+01  1.00800000E+00
  1.00800000E+00  1.60000000E+01  1.00800000E+00  1.00800000E+00  1.60000000E+01
  1.00800000E+00  1.00800000E+00  1.60000000E+01  1.00800000E+00  1.00800000E+00
  1.60000000E+01  1.00800000E+00  1.00800000E+00  1.60000000E+01  1.00800000E+00
  1.00800000E+00  1.60000000E+01  1.00800000E+00  1.00800000E+00  1.60000000E+01
  1.00800000E+00  1.00800000E+00  1.60000000E+01  1.00800000E+00  1.00800000E+00
  1.60000000E+01  1.00800000E+00  1.00800000E+00  1.60000000E+01  1.00800000E+00
  1.00800000E+00  1.60000000E+01  1.00800000E+00  1.00800000E+00  1.60000000E+01
  1.00800000E+00  1.00800000E+00  1.60000000E+01  1.00800000E+00  1.00800000E+00
  1.60000000E+01  1.00800000E+00  1.00800000E+00  1.60000000E+01  1.00800000E+00
  1.00800000E+00  1.60000000E+01  1.00800000E+00  1.00800000E+00  1.60000000E+01
  1.00800000E+00  1.00800000E+00  1.60000000E+01  1.00800000E+00  1.00800000E+00
  1.60000000E+01  1.00800000E+00  1.00800000E+00  1.60000000E+01  1.00800000E+00
  1.00800000E+00  1.60000000E+01  1.00800000E+00  1.00800000E+00  1.60000000E+01
  1.00800000E+00  1.00800000E+00  1.60000000E+01  1.00800000E+00  1.00800000E+00
  1.60000000E+01  1.00800000E+00  1.00800000E+00  1.60000000E+01  1.00800000E+00
  1.00800000E+00  1.60000000E+01  1.00800000E+00  1.00800000E+00  1.60000000E+01
  1.00800000E+00  1.00800000E+00  1.60000000E+01  1.00800000E+00  1.00800000E+00
  1.60000000E+01  1.00800000E+00  1.00800000E+00  1.60000000E+01  1.00800000E+00
  1.00800000E+00  1.60000000E+01  1.00800000E+00  1.00800000E+00  1.60000000E+01
  1.00800000E+00  1.00800000E+00  1.60000000E+01  1.00800000E+00  1.00800000E+00
  1.60000000E+01  1.00800000E+00  1.00800000E+00  1.60000000E+01  1.00800000E+00
  1.00800000E+00  1.60000000E+01  1.00800000E+00  1.00800000E+00  1.60000000E+01
  1.00800000E+00  1.00800000E+00  1.60000000E+01  1.00800000E+00  1.00800000E+00
  1.60000000E+01  1.00800000E+00  1.00800000E+00  1.60000000E+01  1.00800000E+00
  1.00800000E+00  1.60000000E+01  1.00800000E+00  1.00800000E+00  1.60000000E+01
  1.00800000E+00  1.00800000E+00  1.60000000E+01  1.00800000E+00  1.00800000E+00
  1.60000000E+01  1.00800000E+00  1.00800000E+00  1.60000000E+01  1.00800000E+00
  1.00800000E+00  1.60000000E+01  1.00800000E+00  1.00800000E+00  1.60000000E+01
  1.00800000E+00  1.00800000E+00  1.60000000E+01  1.00800000E+00  1.00800000E+00
  1.60000000E+01  1.00800000E+00  1.00800000E+00  1.60000000E+01  1.00800000E+00
  1.00800000E+00  1.60000000E+01  1.00800000E+00  1.00800000E+00  1.60000000E+01
  1.00800000E+00  1.00800000E+00  1.60000000E+01  1.00800000E+00  1.00800000E+00
  1.60000000E+01  1.00800000E+00  1.00800000E+00  1.60000000E+01  1.00800000E+00
  1.00800000E+00  1.60000000E+01  1.00800000E+00  1.00800000E+00  1.60000000E+01
  1.00800000E+00  1.00800000E+00  1.60000000E+01  1.00800000E+00  1.00800000E+00
  1.60000000E+01  1.00800000E+00  1.00800000E+00  1.60000000E+01  1.00800000E+00
  1.00800000E+00  1.60000000E+01  1.00800000E+00  1.00800000E+00  1.60000000E+01
  1.00800000E+00  1.00800000E+00  1.60000000E+01  1.00800000E+00  1.00800000E+00
  1.60000000E+01  1.00800000E+00  1.00800000E+00  1.60000000E+01  1.00800000E+00
  1.00800000E+00  1.60000000E+01  1.00800000E+00  1.00800000E+00  1.60000000E+01
  1.00800000E+00  1.00800000E+00  1.60000000E+01  1.00800000E+00  1.00800000E+00
  1.60000000E+01  1.00800000E+00  1.00800000E+00  1.60000000E+01  1.00800000E+00
  1.00800000E+00  1.60000000E+01  1.00800000E+00  1.00800000E+00  1.60000000E+01
  1.00800000E+00  1.00800000E+00  1.60000000E+01  1.00800000E+00  1.00800000E+00
  1.60000000E+01  1.00800000E+00  1.00800000E+00  1.60000000E+01  1.00800000E+00
  1.00800000E+00  1.60000000E+01  1.00800000E+00  1.00800000E+00  1.60000000E+01
  1.00800000E+00  1.00800000E+00  1.60000000E+01  1.00800000E+00  1.00800000E+00
  1.60000000E+01  1.00800000E+00  1.00800000E+00  1.60000000E+01  1.00800000E+00
  1.00800000E+00  1.60000000E+01  1.00800000E+00  1.00800000E+00  1.60000000E+01
  1.00800000E+00  1.00800000E+00  1.60000000E+01  1.00800000E+00  1.00800000E+00
  1.60000000E+01  1.00800000E+00  1.00800000E+00  1.60000000E+01  1.00800000E+00
  1.00800000E+00  1.60000000E+01  1.00800000E+00  1.00800000E+00  1.60000000E+01
  1.00800000E+00  1.00800000E+00  1.60000000E+01  1.00800000E+00  1.00800000E+00
  1.60000000E+01  1.00800000E+00  1.00800000E+00  1.60000000E+01  1.00800000E+00
  1.00800000E+00  1.60000000E+01  1.00800000E+00  1.00800000E+00  1.60000000E+01
  1.00800000E+00  1.00800000E+00  1.60000000E+01  1.00800000E+00  1.00800000E+00
  1.60000000E+01  1.00800000E+00  1.00800000E+00  1.60000000E+01  1.00800000E+00
  1.00800000E+00  1.60000000E+01  1.00800000E+00  1.00800000E+00  1.60000000E+01
  1.00800000E+00  1.00800000E+00  1.60000000E+01  1.00800000E+00  1.00800000E+00
  1.60000000E+01  1.00800000E+00  1.00800000E+00  1.60000000E+01  1.00800000E+00
  1.00800000E+00  1.60000000E+01  1.00800000E+00  1.00800000E+00  1.60000000E+01
  1.00800000E+00  1.00800000E+00  1.60000000E+01  1.00800000E+00  1.00800000E+00
  1.60000000E+01  1.00800000E+00  1.00800000E+00  1.60000000E+01  1.00800000E+00
  1.00800000E+00  1.60000000E+01  1.00800000E+00  1.00800000E+00  1.60000000E+01
  1.00800000E+00  1.00800000E+00  1.60000000E+01  1.00800000E+00  1.00800000E+00
  1.60000000E+01  1.00800000E+00  1.00800000E+00  1.60000000E+01  1.00800000E+00
  1.00800000E+00  1.60000000E+01  1.00800000E+00  1.00800000E+00  1.60000000E+01
  1.00800000E+00  1.00800000E+00  1.60000000E+01  1.00800000E+00  1.00800000E+00
  1.60000000E+01  1.00800000E+00  1.00800000E+00  1.60000000E+01  1.00800000E+00
  1.00800000E+00  1.60000000E+01  1.00800000E+00  1.00800000E+00  1.60000000E+01
  1.00800000E+00  1.00800000E+00  1.60000000E+01  1.00800000E+00  1.00800000E+00
  1.60000000E+01  1.00800000E+00  1.00800000E+00  1.60000000E+01  1.00800000E+00
  1.00800000E+00  1.60000000E+01  1.00800000E+00  1.00800000E+00  1.60000000E+01
  1.00800000E+00  1.00800000E+00  1.60000000E+01  1.00800000E+00  1.00800000E+00
  1.60000000E+01  1.00800000E+00  1.00800000E+00  1.60000000E+01  1.00800000E+00
  1.00800000E+00  1.60000000E+01  1.00800000E+00  1.00800000E+00  1.60000000E+01
  1.00800000E+00  1.00800000E+00  1.60000000E+01  1.00800000E+00  1.00800000E+00
  1.60000000E+01  1.00800000E+00  1.00800000E+00  1.60000000E+01  1.00800000E+00
  1.00800000E+00  1.60000000E+01  1.00800000E+00  1.00800000E+00  1.60000000E+01
  1.00800000E+00  1.00800000E+00  1.60000000E+01  1.00800000E+00  1.00800000E+00
  1.60000000E+01  1.00800000E+00  1.00800000E+00  1.60000000E+01  1.00800000E+00
  1.00800000E+00  1.60000000E+01  1.00800000E+00  1.00800000E+00  1.60000000E+01
  1.00800000E+00  1.00800000E+00  1.60000000E+01  1.00800000E+00  1.00800000E+00
  1.60000000E+01  1.00800000E+00  1.00800000E+00  1.60000000E+01  1.00800000E+00
  1.00800000E+00  1.60000000E+01  1.00800000E+00  1.00800000E+00  1.60000000E+01
  1.00800000E+00  1.00800000E+00  1.60000000E+01  1.00800000E+00  1.00800000E+00
  1.60000000E+01  1.00800000E+00  1.00800000E+00  1.60000000E+01  1.00800000E+00
  1.00800000E+00  1.60000000E+01  1.00800000E+00  1.00800000E+00  1.60000000E+01
  1.00800000E+00  1.00800000E+00  1.60000000E+01  1.00800000E+00  1.00800000E+00
  1.60000000E+01  1.00800000E+00  1.00800000E+00  1.60000000E+01  1.00800000E+00
  1.00800000E+00  1.60000000E+01  1.00800000E+00  1.00800000E+00  1.60000000E+01
  1.00800000E+00  1.00800000E+00  1.60000000E+01  1.00800000E+00  1.00800000E+00
  1.60000000E+01  1.00800000E+00  1.00800000E+00  1.60000000E+01  1.00800000E+00
  1.00800000E+00  1.60000000E+01  1.00800000E+00  1.00800000E+00  1.60000000E+01
  1.00800000E+00  1.00800000E+00  1.60000000E+01  1.00800000E+00  1.00800000E+00
  1.60000000E+01  1.00800000E+00  1.00800000E+00  1.60000000E+01  1.00800000E+00
  1.00800000E+00  1.60000000E+01  1.00800000E+00  1.00800000E+00  1.60000000E+01
  1.00800000E+00  1.00800000E+00  1.60000000E+01  1.00800000E+00  1.00800000E+00
  1.60000000E+01  1.00800000E+00  1.00800000E+00  1.60000000E+01  1.00800000E+00
  1.00800000E+00  1.60000000E+01  1.00800000E+00  1.00800000E+00  1.60000000E+01
  1.00800000E+00  1.00800000E+00  1.60000000E+01  1.00800000E+00  1.00800000E+00
  1.60000000E+01  1.00800000E+00  1.00800000E+00  1.60000000E+01  1.00800000E+00
  1.00800000E+00  1.60000000E+01  1.00800000E+00  1.00800000E+00  1.60000000E+01
  1.00800000E+00  1.00800000E+00  1.60000000E+01  1.00800000E+00  1.00800000E+00
  1.60000000E+01  1.00800000E+00  1.00800000E+00  1.60000000E+01  1.00800000E+00
  1.00800000E+00  1.60000000E+01  1.00800000E+00  1.00800000E+00  1.60000000E+01
  1.00800000E+00  1.00800000E+00  1.60000000E+01  1.00800000E+00  1.00800000E+00
  1.60000000E+01  1.00800000E+00  1.00800000E+00  1.60000000E+01  1.00800000E+00
  1.00800000E+00  1.60000000E+01  1.00800000E+00  1.00800000E+00  1.60000000E+01
  1.00800000E+00  1.00800000E+00  1.60000000E+01  1.00800000E+00  1.00800000E+00
  1.60000000E+01  1.00800000E+00  1.00800000E+00  1.60000000E+01  1.00800000E+00
  1.00800000E+00  1.60000000E+01  1.00800000E+00  1.00800000E+00  1.60000000E+01
  1.00800000E+00  1.00800000E+00  1.60000000E+01  1.00800000E+00  1.00800000E+00
  1.60000000E+01  1.00800000E+00  1.00800000E+00  1.60000000E+01  1.00800000E+00
  1.00800000E+00  1.60000000E+01  1.00800000E+00  1.00800000E+00  1.60000000E+01
  1.00800000E+00  1.00800000E+00  1.60000000E+01  1.00800000E+00  1.00800000E+00
  1.60000000E+01  1.00800000E+00  1.00800000E+00  1.60000000E+01  1.00800000E+00
  1.00800000E+00  1.60000000E+01  1.00800000E+00  1.00800000E+00  1.60000000E+01
  1.00800000E+00  1.00800000E+00  1.60000000E+01  1.00800000E+00  1.00800000E+00
  1.60000000E+01  1.00800000E+00  1.00800000E+00  1.60000000E+01  1.00800000E+00
  1.00800000E+00  1.60000000E+01  1.00800000E+00  1.00800000E+00  1.60000000E+01
  1.00800000E+00  1.00800000E+00  1.60000000E+01  1.00800000E+00  1.00800000E+00
  1.60000000E+01  1.00800000E+00  1.00800000E+00  1.60000000E+01  1.00800000E+00
  1.00800000E+00  1.60000000E+01  1.00800000E+00  1.00800000E+00  1.60000000E+01
  1.00800000E+00  1.00800000E+00  1.60000000E+01  1.00800000E+00  1.00800000E+00
  1.60000000E+01  1.00800000E+00  1.00800000E+00  1.60000000E+01  1.00800000E+00
  1.00800000E+00  1.60000000E+01  1.00800000E+00  1.00800000E+00  1.60000000E+01
  1.00800000E+00  1.00800000E+00  1.60000000E+01  1.00800000E+00  1.00800000E+00
  1.60000000E+01  1.00800000E+00  1.00800000E+00  1.60000000E+01  1.00800000E+00
  1.00800000E+00  1.60000000E+01  1.00800000E+00  1.00800000E+00  1.60000000E+01
  1.00800000E+00  1.00800000E+00  1.60000000E+01  1.00800000E+00  1.00800000E+00
  1.60000000E+01  1.00800000E+00  1.00800000E+00  1.60000000E+01  1.00800000E+00
  1.00800000E+00  1.60000000E+01  1.00800000E+00  1.00800000E+00  1.60000000E+01
  1.00800000E+00  1.00800000E+00  1.60000000E+01  1.00800000E+00  1.00800000E+00
  1.60000000E+01  1.00800000E+00  1.00800000E+00  1.60000000E+01  1.00800000E+00
  1.00800000E+00  1.60000000E+01  1.00800000E+00  1.00800000E+00  1.60000000E+01
  1.00800000E+00  1.00800000E+00  1.60000000E+01  1.00800000E+00  1.00800000E+00
  1.60000000E+01  1.00800000E+00  1.00800000E+00  1.60000000E+01  1.00800000E+00
  1.00800000E+00  1.60000000E+01  1.00800000E+00  1.00800000E+00  1.60000000E+01
  1.00800000E+00  1.00800000E+00  1.60000000E+01  1.00800000E+00  1.00800000E+00
  1.60000000E+01  1.00800000E+00  1.00800000E+00  1.60000000E+01  1.00800000E+00
  1.00800000E+00  1.60000000E+01  1.00800000E+00  1.00800000E+00  1.60000000E+01
  1.00800000E+00  1.00800000E+00  1.60000000E+01  1.00800000E+00  1.00800000E+00
  1.60000000E+01  1.00800000E+00  1.00800000E+00  1.60000000E+01  1.00800000E+00
  1.00800000E+00  1.60000000E+01  1.00800000E+00  1.00800000E+00  1.60000000E+01
  1.00800000E+00  1.00800000E+00  1.60000000E+01  1.00800000E+00  1.00800000E+00
  1.60000000E+01  1.00800000E+00  1.00800000E+00  1.60000000E+01  1.00800000E+00
  1.00800000E+00  1.60000000E+01  1.00800000E+00  1.00800000E+00  1.60000000E+01
  1.00800000E+00  1.00800000E+00  1.60000000E+01  1.00800000E+00  1.00800000E+00
  1.60000000E+01  1.00800000E+00  1.00800000E+00  1.60000000E+01  1.00800000E+00
  1.00800000E+00  1.60000000E+01  1.00800000E+00  1.00800000E+00  1.60000000E+01
  1.00800000E+00  1.00800000E+00  1.60000000E+01  1.00800000E+00  1.00800000E+00
  1.60000000E+01  1.00800000E+00  1.00800000E+00  1.60000000E+01  1.00800000E+00
  1.00800000E+00  1.60000000E+01  1.00800000E+00  1.00800000E+00  1.60000000E+01
  1.00800000E+00  1.00800000E+00  1.60000000E+01  1.00800000E+00  1.00800000E+00
  1.60000000E+01  1.00800000E+00  1.00800000E+00  1.60000000E+01  1.00800000E+00
  1.00800000E+00  1.60000000E+01  1.00800000E+00  1.00800000E+00  1.60000000E+01
  1.00800000E+00  1.00800000E+00  1.60000000E+01  1.00800000E+00  1.00800000E+00
  1.60000000E+01  1.00800000E+00  1.00800000E+00  1.60000000E+01  1.00800000E+00
  1.00800000E+00  1.60000000E+01  1.00800000E+00  1.00800000E+00  1.60000000E+01
  1.00800000E+00  1.00800000E+00  1.60000000E+01  1.00800000E+00  1.00800000E+00
  1.60000000E+01  1.00800000E+00  1.00800000E+00  1.60000000E+01  1.00800000E+00
  1.00800000E+00  1.60000000E+01  1.00800000E+00  1.00800000E+00  1.60000000E+01
  1.00800000E+00  1.00800000E+00  1.60000000E+01  1.00800000E+00  1.00800000E+00
  1.60000000E+01  1.00800000E+00  1.00800000E+00  1.60000000E+01  1.00800000E+00
  1.00800000E+00  1.60000000E+01  1.00800000E+00  1.00800000E+00  1.60000000E+01
  1.00800000E+00  1.00800000E+00  1.60000000E+01  1.00800000E+00  1.00800000E+00
  1.60000000E+01  1.00800000E+00  1.00800000E+00  1.60000000E+01  1.00800000E+00
  1.00800000E+00  1.60000000E+01  1.00800000E+00  1.00800000E+00  1.60000000E+01
  1.00800000E+00  1.00800000E+00  1.60000000E+01  1.00800000E+00  1.00800000E+00
  1.60000000E+01  1.00800000E+00  1.00800000E+00  1.60000000E+01  1.00800000E+00
  1.00800000E+00  1.60000000E+01  1.00800000E+00  1.00800000E+00  1.60000000E+01
  1.00800000E+00  1.00800000E+00  1.60000000E+01  1.00800000E+00  1.00800000E+00
  1.60000000E+01  1.00800000E+00  1.00800000E+00  1.60000000E+01  1.00800000E+00
  1.00800000E+00  1.60000000E+01  1.00800000E+00  1.00800000E+00  1.60000000E+01
  1.00800000E+00  1.00800000E+00  1.60000000E+01  1.00800000E+00  1.00800000E+00
  1.60000000E+01  1.00800000E+00  1.00800000E+00  1.60000000E+01  1.00800000E+00
  1.00800000E+00  1.60000000E+01  1.00800000E+00  1.00800000E+00  1.60000000E+01
  1.00800000E+00  1.00800000E+00  1.60000000E+01  1.00800000E+00  1.00800000E+00
  1.60000000E+01  1.00800000E+00  1.00800000E+00  1.60000000E+01  1.00800000E+00
  1.00800000E+00  1.60000000E+01  1.00800000E+00  1.00800000E+00  1.60000000E+01
  1.00800000E+00  1.00800000E+00  1.60000000E+01  1.00800000E+00  1.00800000E+00
  1.60000000E+01  1.00800000E+00  1.00800000E+00  1.60000000E+01  1.00800000E+00
  1.00800000E+00  1.60000000E+01  1.00800000E+00  1.00800000E+00  1.60000000E+01
  1.00800000E+00  1.00800000E+00  1.60000000E+01  1.00800000E+00  1.00800000E+00
  1.60000000E+01  1.00800000E+00  1.00800000E+00  1.60000000E+01  1.00800000E+00
  1.00800000E+00  1.60000000E+01  1.00800000E+00  1.00800000E+00  1.60000000E+01
  1.00800000E+00  1.00800000E+00  1.60000000E+01  1.00800000E+00  1.00800000E+00
  1.60000000E+01  1.00800000E+00  1.00800000E+00  1.60000000E+01  1.00800000E+00
  1.00800000E+00  1.60000000E+01  1.00800000E+00  1.00800000E+00  1.60000000E+01
  1.00800000E+00  1.00800000E+00  1.60000000E+01  1.00800000E+00  1.00800000E+00
  1.60000000E+01  1.00800000E+00  1.00800000E+00  1.60000000E+01  1.00800000E+00
  1.00800000E+00  1.60000000E+01  1.00800000E+00  1.00800000E+00  1.60000000E+01
  1.00800000E+00  1.00800000E+00  1.60000000E+01  1.00800000E+00  1.00800000E+00
  1.60000000E+01  1.00800000E+00  1.00800000E+00  1.60000000E+01  1.00800000E+00
  1.00800000E+00  1.60000000E+01  1.00800000E+00  1.00800000E+00  1.60000000E+01
  1.00800000E+00  1.00800000E+00  1.60000000E+01  1.00800000E+00  1.00800000E+00
  1.60000000E+01  1.00800000E+00  1.00800000E+00  1.60000000E+01  1.00800000E+00
  1.00800000E+00  1.60000000E+01  1.00800000E+00  1.00800000E+00  1.60000000E+01
  1.00800000E+00  1.00800000E+00  1.60000000E+01  1.00800000E+00  1.00800000E+00
  1.60000000E+01  1.00800000E+00  1.00800000E+00  1.60000000E+01  1.00800000E+00
  1.00800000E+00  1.60000000E+01  1.00800000E+00  1.00800000E+00  1.60000000E+01
  1.00800000E+00  1.00800000E+00  1.60000000E+01  1.00800000E+00  1.00800000E+00
  1.60000000E+01  1.00800000E+00  1.00800000E+00  1.60000000E+01  1.00800000E+00
  1.00800000E+00  1.60000000E+01  1.00800000E+00  1.00800000E+00  1.60000000E+01
  1.00800000E+00  1.00800000E+00  1.60000000E+01  1.00800000E+00  1.00800000E+00
  1.60000000E+01  1.00800000E+00  1.00800000E+00  1.60000000E+01  1.00800000E+00
  1.00800000E+00  1.60000000E+01  1.00800000E+00  1.00800000E+00  1.60000000E+01
  1.00800000E+00  1.00800000E+00  1.60000000E+01  1.00800000E+00  1.00800000E+00
  1.60000000E+01  1.00800000E+00  1.00800000E+00  1.60000000E+01  1.00800000E+00
  1.00800000E+00  1.60000000E+01  1.00800000E+00  1.00800000E+00  1.60000000E+01
  1.00800000E+00  1.00800000E+00  1.60000000E+01  1.00800000E+00  1.00800000E+00
  1.60000000E+01  1.00800000E+00  1.00800000E+00  1.60000000E+01  1.00800000E+00
  1.00800000E+00  1.60000000E+01  1.00800000E+00  1.00800000E+00  1.60000000E+01
  1.00800000E+00  1.00800000E+00  1.60000000E+01  1.00800000E+00  1.00800000E+00
  1.60000000E+01  1.00800000E+00  1.00800000E+00  1.60000000E+01  1.00800000E+00
  1.00800000E+00  1.60000000E+01  1.00800000E+00  1.00800000E+00  1.60000000E+01
  1.00800000E+00  1.00800000E+00  1.60000000E+01  1.00800000E+00  1.00800000E+00
  1.60000000E+01  1.00800000E+00  1.00800000E+00  1.60000000E+01  1.00800000E+00
  1.00800000E+00  1.60000000E+01  1.00800000E+00  1.00800000E+00  1.60000000E+01
  1.00800000E+00  1.00800000E+00  1.60000000E+01  1.00800000E+00  1.00800000E+00
  1.60000000E+01  1.00800000E+00  1.00800000E+00  1.60000000E+01  1.00800000E+00
  1.00800000E+00  1.60000000E+01  1.00800000E+00  1.00800000E+00  1.60000000E+01
  1.00800000E+00  1.00800000E+00  1.60000000E+01  1.00800000E+00  1.00800000E+00
  1.60000000E+01  1.00800000E+00  1.00800000E+00  1.60000000E+01  1.00800000E+00
  1.00800000E+00  1.60000000E+01  1.00800000E+00  1.00800000E+00  1.60000000E+01
  1.00800000E+00  1.00800000E+00  1.60000000E+01  1.00800000E+00  1.00800000E+00
  1.60000000E+01  1.00800000E+00  1.00800000E+00  1.60000000E+01  1.00800000E+00
  1.00800000E+00  1.60000000E+01  1.00800000E+00  1.00800000E+00  1.60000000E+01
  1.00800000E+00  1.00800000E+00  1.60000000E+01  1.00800000E+00  1.00800000E+00
  1.60000000E+01  1.00800000E+00  1.00800000E+00  1.60000000E+01  1.00800000E+00
  1.00800000E+00  1.60000000E+01  1.00800000E+00  1.00800000E+00  1.60000000E+01
  1.00800000E+00  1.00800000E+00  1.60000000E+01  1.00800000E+00  1.00800000E+00
  1.60000000E+01  1.00800000E+00  1.00800000E+00  1.60000000E+01  1.00800000E+00
  1.00800000E+00  1.60000000E+01  1.00800000E+00  1.00800000E+00  1.60000000E+01
  1.00800000E+00  1.00800000E+00  1.60000000E+01  1.00800000E+00  1.00800000E+00
  1.60000000E+01  1.00800000E+00  1.00800000E+00  1.60000000E+01  1.00800000E+00
  1.00800000E+00  1.60000000E+01  1.00800000E+00  1.00800000E+00  1.60000000E+01
  1.00800000E+00  1.00800000E+00  1.60000000E+01  1.00800000E+00  1.00800000E+00
  1.60000000E+01  1.00800000E+00  1.00800000E+00  1.60000000E+01  1.00800000E+00
  1.00800000E+00  1.60000000E+01  1.00800000E+00  1.00800000E+00  1.60000000E+01
  1.00800000E+00  1.00800000E+00  1.60000000E+01  1.00800000E+00  1.00800000E+00
  1.60000000E+01  1.00800000E+00  1.00800000E+00  1.60000000E+01  1.00800000E+00
  1.00800000E+00  1.60000000E+01  1.00800000E+00  1.00800000E+00  1.60000000E+01
  1.00800000E+00  1.00800000E+00  1.60000000E+01  1.00800000E+00  1.00800000E+00
  1.60000000E+01  1.00800000E+00  1.00800000E+00  1.60000000E+01  1.00800000E+00
  1.00800000E+00  1.60000000E+01  1.00800000E+00  1.00800000E+00  1.60000000E+01
  1.00800000E+00  1.00800000E+00  1.60000000E+01  1.00800000E+00  1.00800000E+00
  1.60000000E+01  1.00800000E+00  1.00800000E+00  1.60000000E+01  1.00800000E+00
  1.00800000E+00  1.60000000E+01  1.00800000E+00  1.00800000E+00  1.60000000E+01
  1.00800000E+00  1.00800000E+00  1.60000000E+01  1.00800000E+00  1.00800000E+00
  1.60000000E+01  1.00800000E+00  1.00800000E+00  1.60000000E+01  1.00800000E+00
  1.00800000E+00  1.60000000E+01  1.00800000E+00  1.00800000E+00  1.60000000E+01
  1.00800000E+00  1.00800000E+00  1.60000000E+01  1.00800000E+00  1.00800000E+00
  1.60000000E+01  1.00800000E+00  1.00800000E+00  1.60000000E+01  1.00800000E+00
  1.00800000E+00  1.60000000E+01  1.00800000E+00  1.00800000E+00  1.60000000E+01
  1.00800000E+00  1.00800000E+00  1.60000000E+01  1.00800000E+00  1.00800000E+00
  1.60000000E+01  1.00800000E+00  1.00800000E+00  1.60000000E+01  1.00800000E+00
  1.00800000E+00  1.60000000E+01  1.00800000E+00  1.00800000E+00  1.60000000E+01
  1.00800000E+00  1.00800000E+00  1.60000000E+01  1.00800000E+00  1.00800000E+00
  1.60000000E+01  1.00800000E+00  1.00800000E+00  1.60000000E+01  1.00800000E+00
  1.00800000E+00  1.60000000E+01  1.00800000E+00  1.00800000E+00  1.60000000E+01
  1.00800000E+00  1.00800000E+00  1.60000000E+01  1.00800000E+00  1.00800000E+00
  1.60000000E+01  1.00800000E+00  1.00800000E+00  1.60000000E+01  1.00800000E+00
  1.00800000E+00  1.60000000E+01  1.00800000E+00  1.00800000E+00  1.60000000E+01
  1.00800000E+00  1.00800000E+00  1.60000000E+01  1.00800000E+00  1.00800000E+00
  1.60000000E+01  1.00800000E+00  1.00800000E+00  1.60000000E+01  1.00800000E+00
  1.00800000E+00  1.60000000E+01  1.00800000E+00  1.00800000E+00  1.60000000E+01
  1.00800000E+00  1.00800000E+00  1.60000000E+01  1.00800000E+00  1.00800000E+00
  1.60000000E+01  1.00800000E+00  1.00800000E+00  1.60000000E+01  1.00800000E+00
  1.00800000E+00  1.60000000E+01  1.00800000E+00  1.00800000E+00  1.60000000E+01
  1.00800000E+00  1.00800000E+00  1.60000000E+01  1.00800000E+00  1.00800000E+00
  1.60000000E+01  1.00800000E+00  1.00800000E+00  1.60000000E+01  1.00800000E+00
  1.00800000E+00  1.60000000E+01  1.00800000E+00  1.00800000E+00  1.60000000E+01
  1.00800000E+00  1.00800000E+00  1.60000000E+01  1.00800000E+00  1.00800000E+00
  1.60000000E+01  1.00800000E+00  1.00800000E+00  1.60000000E+01  1.00800000E+00
  1.00800000E+00  1.60000000E+01  1.00800000E+00  1.00800000E+00  1.60000000E+01
  1.00800000E+00  1.00800000E+00  1.60000000E+01  1.00800000E+00  1.00800000E+00
  1.60000000E+01  1.00800000E+00  1.00800000E+00  1.60000000E+01  1.00800000E+00
  1.00800000E+00  1.60000000E+01  1.00800000E+00  1.00800000E+00  1.60000000E+01
  1.00800000E+00  1.00800000E+00  1.60000000E+01  1.00800000E+00  1.00800000E+00
  1.60000000E+01  1.00800000E+00  1.00800000E+00  1.60000000E+01  1.00800000E+00
  1.00800000E+00  1.60000000E+01  1.00800000E+00  1.00800000E+00  1.60000000E+01
  1.00800000E+00  1.00800000E+00  1.60000000E+01  1.00800000E+00  1.00800000E+00
  1.60000000E+01  1.00800000E+00  1.00800000E+00  1.60000000E+01  1.00800000E+00
  1.00800000E+00  1.60000000E+01  1.00800000E+00  1.00800000E+00  1.60000000E+01
  1.00800000E+00  1.00800000E+00  1.60000000E+01  1.00800000E+00  1.00800000E+00
  1.60000000E+01  1.00800000E+00  1.00800000E+00  1.60000000E+01  1.00800000E+00
  1.00800000E+00  1.60000000E+01  1.00800000E+00  1.00800000E+00  1.60000000E+01
  1.00800000E+00  1.00800000E+00  1.60000000E+01  1.00800000E+00  1.00800000E+00
  1.60000000E+01  1.00800000E+00  1.00800000E+00  1.60000000E+01  1.00800000E+00
  1.00800000E+00  1.60000000E+01  1.00800000E+00  1.00800000E+00  1.60000000E+01
  1.00800000E+00  1.00800000E+00  1.60000000E+01  1.00800000E+00  1.00800000E+00
  1.60000000E+01  1.00800000E+00  1.00800000E+00  1.60000000E+01  1.00800000E+00
  1.00800000E+00  1.60000000E+01  1.00800000E+00  1.00800000E+00  1.60000000E+01
  1.00800000E+00  1.00800000E+00  1.60000000E+01  1.00800000E+00  1.00800000E+00
  1.60000000E+01  1.00800000E+00  1.00800000E+00  1.60000000E+01  1.00800000E+00
  1.00800000E+00  1.60000000E+01  1.00800000E+00  1.00800000E+00  1.60000000E+01
  1.00800000E+00  1.00800000E+00  1.60000000E+01  1.00800000E+00  1.00800000E+00
  1.60000000E+01  1.00800000E+00  1.00800000E+00  1.60000000E+01  1.00800000E+00
  1.00800000E+00  1.60000000E+01  1.00800000E+00  1.00800000E+00  1.60000000E+01
  1.00800000E+00  1.00800000E+00  1.60000000E+01  1.00800000E+00  1.00800000E+00
  1.60000000E+01  1.00800000E+00  1.00800000E+00  1.60000000E+01  1.00800000E+00
  1.00800000E+00  1.60000000E+01  1.00800000E+00  1.00800000E+00  1.60000000E+01
  1.00800000E+00  1.00800000E+00  1.60000000E+01  1.00800000E+00  1.00800000E+00
  1.60000000E+01  1.00800000E+00  1.00800000E+00  1.60000000E+01  1.00800000E+00
  1.00800000E+00  1.60000000E+01  1.00800000E+00  1.00800000E+00  1.60000000E+01
  1.00800000E+00  1.00800000E+00  1.60000000E+01  1.00800000E+00  1.00800000E+00
  1.60000000E+01  1.00800000E+00  1.00800000E+00  1.60000000E+01  1.00800000E+00
  1.00800000E+00  1.60000000E+01  1.00800000E+00  1.00800000E+00  1.60000000E+01
  1.00800000E+00  1.00800000E+00  1.60000000E+01  1.00800000E+00  1.00800000E+00
  1.60000000E+01  1.00800000E+00  1.00800000E+00  1.60000000E+01  1.00800000E+00
  1.00800000E+00  1.60000000E+01  1.00800000E+00  1.00800000E+00  1.60000000E+01
  1.00800000E+00  1.00800000E+00  1.60000000E+01  1.00800000E+00  1.00800000E+00
  1.60000000E+01  1.00800000E+00  1.00800000E+00  1.60000000E+01  1.00800000E+00
  1.00800000E+00  1.60000000E+01  1.00800000E+00  1.00800000E+00  1.60000000E+01
  1.00800000E+00  1.00800000E+00  1.60000000E+01  1.00800000E+00  1.00800000E+00
  1.60000000E+01  1.00800000E+00  1.00800000E+00  1.60000000E+01  1.00800000E+00
  1.00800000E+00  1.60000000E+01  1.00800000E+00  1.00800000E+00  1.60000000E+01
  1.00800000E+00  1.00800000E+00  1.60000000E+01  1.00800000E+00  1.00800000E+00
  1.60000000E+01  1.00800000E+00  1.00800000E+00  1.60000000E+01  1.00800000E+00
  1.00800000E+00  1.60000000E+01  1.00800000E+00  1.00800000E+00  1.60000000E+01
  1.00800000E+00  1.00800000E+00  1.60000000E+01  1.00800000E+00  1.00800000E+00
  1.60000000E+01  1.00800000E+00  1.00800000E+00  1.60000000E+01  1.00800000E+00
  1.00800000E+00  1.60000000E+01  1.00800000E+00  1.00800000E+00  1.60000000E+01
  1.00800000E+00  1.00800000E+00  1.60000000E+01  1.00800000E+00  1.00800000E+00
  1.60000000E+01  1.00800000E+00  1.00800000E+00  1.60000000E+01  1.00800000E+00
  1.00800000E+00  1.60000000E+01  1.00800000E+00  1.00800000E+00  1.60000000E+01
  1.00800000E+00  1.00800000E+00  1.60000000E+01  1.00800000E+00  1.00800000E+00
  1.60000000E+01  1.00800000E+00  1.00800000E+00  1.60000000E+01  1.00800000E+00
  1.00800000E+00  1.60000000E+01  1.00800000E+00  1.00800000E+00  1.60000000E+01
  1.00800000E+00  1.00800000E+00  1.60000000E+01  1.00800000E+00  1.00800000E+00
  1.60000000E+01  1.00800000E+00  1.00800000E+00  1.60000000E+01  1.00800000E+00
  1.00800000E+00  1.60000000E+01  1.00800000E+00  1.00800000E+00  1.60000000E+01
  1.00800000E+00  1.00800000E+00  1.60000000E+01  1.00800000E+00  1.00800000E+00
  1.60000000E+01  1.00800000E+00  1.00800000E+00  1.60000000E+01  1.00800000E+00
  1.00800000E+00  1.60000000E+01  1.00800000E+00  1.00800000E+00  1.60000000E+01
  1.00800000E+00  1.00800000E+00  1.60000000E+01  1.00800000E+00  1.00800000E+00
  1.60000000E+01  1.00800000E+00  1.00800000E+00  1.60000000E+01  1.00800000E+00
  1.00800000E+00  1.60000000E+01  1.00800000E+00  1.00800000E+00  1.60000000E+01
  1.00800000E+00  1.00800000E+00  1.60000000E+01  1.00800000E+00  1.00800000E+00
  1.60000000E+01  1.00800000E+00  1.00800000E+00  1.60000000E+01  1.00800000E+00
  1.00800000E+00  1.60000000E+01  1.00800000E+00  1.00800000E+00  1.60000000E+01
  1.00800000E+00  1.00800000E+00  1.60000000E+01  1.00800000E+00  1.00800000E+00
  1.60000000E+01  1.00800000E+00  1.00800000E+00  1.60000000E+01  1.00800000E+00
  1.00800000E+00  1.60000000E+01  1.00800000E+00  1.00800000E+00  1.60000000E+01
  1.00800000E+00  1.00800000E+00  1.60000000E+01  1.00800000E+00  1.00800000E+00
  1.60000000E+01  1.00800000E+00  1.00800000E+00  1.60000000E+01  1.00800000E+00
  1.00800000E+00  1.60000000E+01  1.00800000E+00  1.00800000E+00  1.60000000E+01
  1.00800000E+00  1.00800000E+00  1.60000000E+01  1.00800000E+00  1.00800000E+00
  1.60000000E+01  1.00800000E+00  1.00800000E+00  1.60000000E+01  1.00800000E+00
  1.00800000E+00  1.60000000E+01  1.00800000E+00  1.00800000E+00  1.60000000E+01
  1.00800000E+00  1.00800000E+00  1.60000000E+01  1.00800000E+00  1.00800000E+00
  1.60000000E+01  1.00800000E+00  1.00800000E+00  1.60000000E+01  1.00800000E+00
  1.00800000E+00  1.60000000E+01  1.00800000E+00  1.00800000E+00  1.60000000E+01
  1.00800000E+00  1.00800000E+00  1.60000000E+01  1.00800000E+00  1.00800000E+00
  1.60000000E+01  1.00800000E+00  1.00800000E+00  1.60000000E+01  1.00800000E+00
  1.00800000E+00  1.60000000E+01  1.00800000E+00  1.00800000E+00  1.60000000E+01
  1.00800000E+00  1.00800000E+00  1.60000000E+01  1.00800000E+00  1.00800000E+00
  1.60000000E+01  1.00800000E+00  1.00800000E+00  1.60000000E+01  1.00800000E+00
  1.00800000E+00  1.60000000E+01  1.00800000E+00  1.00800000E+00  1.60000000E+01
  1.00800000E+00  1.00800000E+00  1.60000000E+01  1.00800000E+00  1.00800000E+00
  1.60000000E+01  1.00800000E+00  1.00800000E+00  1.60000000E+01  1.00800000E+00
  1.00800000E+00  1.60000000E+01  1.00800000E+00  1.00800000E+00  1.60000000E+01
  1.00800000E+00  1.00800000E+00  1.60000000E+01  1.00800000E+00  1.00800000E+00
  1.60000000E+01  1.00800000E+00  1.00800000E+00  1.60000000E+01  1.00800000E+00
  1.00800000E+00  1.60000000E+01  1.00800000E+00  1.00800000E+00  1.60000000E+01
  1.00800000E+00  1.00800000E+00  1.60000000E+01  1.00800000E+00  1.00800000E+00
  1.60000000E+01  1.00800000E+00  1.00800000E+00  1.60000000E+01  1.00800000E+00
  1.00800000E+00  1.60000000E+01  1.00800000E+00  1.00800000E+00  1.60000000E+01
  1.00800000E+00  1.00800000E+00  1.60000000E+01  1.00800000E+00  1.00800000E+00
  1.60000000E+01  1.00800000E+00  1.00800000E+00  1.60000000E+01  1.00800000E+00
  1.00800000E+00  1.60000000E+01  1.00800000E+00  1.00800000E+00  1.60000000E+01
  1.00800000E+00  1.00800000E+00  1.60000000E+01  1.00800000E+00  1.00800000E+00
  1.60000000E+01  1.00800000E+00  1.00800000E+00  1.60000000E+01  1.00800000E+00
  1.00800000E+00  1.60000000E+01  1.00800000E+00  1.00800000E+00  1.60000000E+01
  1.00800000E+00  1.00800000E+00  1.60000000E+01  1.00800000E+00  1.00800000E+00
  1.60000000E+01  1.00800000E+00  1.00800000E+00  1.60000000E+01  1.00800000E+00
  1.00800000E+00  1.60000000E+01  1.00800000E+00  1.00800000E+00  1.60000000E+01
  1.00800000E+00  1.00800000E+00  1.60000000E+01  1.00800000E+00  1.00800000E+00
  1.60000000E+01  1.00800000E+00  1.00800000E+00  1.60000000E+01  1.00800000E+00
  1.00800000E+00  1.60000000E+01  1.00800000E+00  1.00800000E+00  1.60000000E+01
  1.00800000E+00  1.00800000E+00  1.60000000E+01  1.00800000E+00  1.00800000E+00
  1.60000000E+01  1.00800000E+00  1.00800000E+00  1.60000000E+01  1.00800000E+00
  1.00800000E+00  1.60000000E+01  1.00800000E+00  1.00800000E+00  1.60000000E+01
  1.00800000E+00  1.00800000E+00  1.60000000E+01  1.00800000E+00  1.00800000E+00
  1.60000000E+01  1.00800000E+00  1.00800000E+00  1.60000000E+01  1.00800000E+00
  1.00800000E+00  1.60000000E+01  1.00800000E+00  1.00800000E+00  1.60000000E+01
  1.00800000E+00  1.00800000E+00  1.60000000E+01  1.00800000E+00  1.00800000E+00
  1.60000000E+01  1.00800000E+00  1.00800000E+00  1.60000000E+01  1.00800000E+00
  1.00800000E+00  1.60000000E+01  1.00800000E+00  1.00800000E+00  1.60000000E+01
  1.00800000E+00  1.00800000E+00  1.60000000E+01  1.00800000E+00  1.00800000E+00
  1.60000000E+01  1.00800000E+00  1.00800000E+00  1.60000000E+01  1.00800000E+00
  1.00800000E+00  1.60000000E+01  1.00800000E+00  1.00800000E+00  1.60000000E+01
  1.00800000E+00  1.00800000E+00  1.60000000E+01  1.00800000E+00  1.00800000E+00
  1.60000000E+01  1.00800000E+00  1.00800000E+00  1.60000000E+01  1.00800000E+00
  1.00800000E+00  1.60000000E+01  1.00800000E+00  1.00800000E+00  1.60000000E+01
  1.00800000E+00  1.00800000E+00  1.60000000E+01  1.00800000E+00  1.00800000E+00
  1.60000000E+01  1.00800000E+00  1.00800000E+00  1.60000000E+01  1.00800000E+00
  1.00800000E+00  1.60000000E+01  1.00800000E+00  1.00800000E+00  1.60000000E+01
  1.00800000E+00  1.00800000E+00  1.60000000E+01  1.00800000E+00  1.00800000E+00
  1.60000000E+01  1.00800000E+00  1.00800000E+00  1.60000000E+01  1.00800000E+00
  1.00800000E+00  1.60000000E+01  1.00800000E+00  1.00800000E+00  1.60000000E+01
  1.00800000E+00  1.00800000E+00  1.60000000E+01  1.00800000E+00  1.00800000E+00
  1.60000000E+01  1.00800000E+00  1.00800000E+00  1.60000000E+01  1.00800000E+00
  1.00800000E+00  1.60000000E+01  1.00800000E+00  1.00800000E+00  1.60000000E+01
  1.00800000E+00  1.00800000E+00  1.60000000E+01  1.00800000E+00  1.00800000E+00
  1.60000000E+01  1.00800000E+00  1.00800000E+00  1.60000000E+01  1.00800000E+00
  1.00800000E+00  1.60000000E+01  1.00800000E+00  1.00800000E+00  1.60000000E+01
  1.00800000E+00  1.00800000E+00  1.60000000E+01  1.00800000E+00  1.00800000E+00
  1.60000000E+01  1.00800000E+00  1.00800000E+00  1.60000000E+01  1.00800000E+00
  1.00800000E+00  1.60000000E+01  1.00800000E+00  1.00800000E+00  1.60000000E+01
  1.00800000E+00  1.00800000E+00  1.60000000E+01  1.00800000E+00  1.00800000E+00
  1.60000000E+01  1.00800000E+00  1.00800000E+00  1.60000000E+01  1.00800000E+00
  1.00800000E+00  1.60000000E+01  1.00800000E+00  1.00800000E+00  1.60000000E+01
  1.00800000E+00  1.00800000E+00  1.60000000E+01  1.00800000E+00  1.00800000E+00
  1.60000000E+01  1.00800000E+00  1.00800000E+00  1.60000000E+01  1.00800000E+00
  1.00800000E+00  1.60000000E+01  1.00800000E+00  1.00800000E+00  1.60000000E+01
  1.00800000E+00  1.00800000E+00  1.60000000E+01  1.00800000E+00  1.00800000E+00
  1.60000000E+01  1.00800000E+00  1.00800000E+00  1.60000000E+01  1.00800000E+00
  1.00800000E+00  1.60000000E+01  1.00800000E+00  1.00800000E+00  1.60000000E+01
  1.00800000E+00  1.00800000E+00  1.60000000E+01  1.00800000E+00  1.00800000E+00
  1.60000000E+01  1.00800000E+00  1.00800000E+00  1.60000000E+01  1.00800000E+00
  1.00800000E+00  1.60000000E+01  1.00800000E+00  1.00800000E+00  1.60000000E+01
  1.00800000E+00  1.00800000E+00  1.60000000E+01  1.00800000E+00  1.00800000E+00
  1.60000000E+01  1.00800000E+00  1.00800000E+00  1.60000000E+01  1.00800000E+00
  1.00800000E+00  1.60000000E+01  1.00800000E+00  1.00800000E+00  1.60000000E+01
  1.00800000E+00  1.00800000E+00  1.60000000E+01  1.00800000E+00  1.00800000E+00
  1.60000000E+01  1.00800000E+00  1.00800000E+00  1.60000000E+01  1.00800000E+00
  1.00800000E+00  1.60000000E+01  1.00800000E+00  1.00800000E+00  1.60000000E+01
  1.00800000E+00  1.00800000E+00  1.60000000E+01  1.00800000E+00  1.00800000E+00
  1.60000000E+01  1.00800000E+00  1.00800000E+00  1.60000000E+01  1.00800000E+00
  1.00800000E+00  1.60000000E+01  1.00800000E+00  1.00800000E+00  1.60000000E+01
  1.00800000E+00  1.00800000E+00  1.60000000E+01  1.00800000E+00  1.00800000E+00
  1.60000000E+01  1.00800000E+00  1.00800000E+00  1.60000000E+01  1.00800000E+00
  1.00800000E+00  1.60000000E+01  1.00800000E+00  1.00800000E+00  1.60000000E+01
  1.00800000E+00  1.00800000E+00  1.60000000E+01  1.00800000E+00  1.00800000E+00
  1.60000000E+01  1.00800000E+00  1.00800000E+00  1.60000000E+01  1.00800000E+00
  1.00800000E+00  1.60000000E+01  1.00800000E+00  1.00800000E+00  1.60000000E+01
  1.00800000E+00  1.00800000E+00  1.60000000E+01  1.00800000E+00  1.00800000E+00
  1.60000000E+01  1.00800000E+00  1.00800000E+00  1.60000000E+01  1.00800000E+00
  1.00800000E+00  1.60000000E+01  1.00800000E+00  1.00800000E+00  1.60000000E+01
  1.00800000E+00  1.00800000E+00  1.60000000E+01  1.00800000E+00  1.00800000E+00
  1.60000000E+01  1.00800000E+00  1.00800000E+00  1.60000000E+01  1.00800000E+00
  1.00800000E+00  1.60000000E+01  1.00800000E+00  1.00800000E+00  1.60000000E+01
  1.00800000E+00  1.00800000E+00  1.60000000E+01  1.00800000E+00  1.00800000E+00
  1.60000000E+01  1.00800000E+00  1.00800000E+00  1.60000000E+01  1.00800000E+00
  1.00800000E+00  1.60000000E+01  1.00800000E+00  1.00800000E+00  1.60000000E+01
  1.00800000E+00  1.00800000E+00  1.60000000E+01  1.00800000E+00  1.00800000E+00
  1.60000000E+01  1.00800000E+00  1.00800000E+00  1.60000000E+01  1.00800000E+00
  1.00800000E+00  1.60000000E+01  1.00800000E+00  1.00800000E+00  1.60000000E+01
  1.00800000E+00  1.00800000E+00  1.60000000E+01  1.00800000E+00  1.00800000E+00
  1.60000000E+01  1.00800000E+00  1.00800000E+00  1.60000000E+01  1.00800000E+00
  1.00800000E+00  1.60000000E+01  1.00800000E+00  1.00800000E+00  1.60000000E+01
  1.00800000E+00  1.00800000E+00  1.60000000E+01  1.00800000E+00  1.00800000E+00
  1.60000000E+01  1.00800000E+00  1.00800000E+00  1.60000000E+01  1.00800000E+00
  1.00800000E+00  1.60000000E+01  1.00800000E+00  1.00800000E+00  1.60000000E+01
  1.00800000E+00  1.00800000E+00  1.60000000E+01  1.00800000E+00  1.00800000E+00
  1.60000000E+01  1.00800000E+00  1.00800000E+00  1.60000000E+01  1.00800000E+00
  1.00800000E+00  1.60000000E+01  1.00800000E+00  1.00800000E+00  1.60000000E+01
  1.00800000E+00  1.00800000E+00  1.60000000E+01  1.00800000E+00  1.00800000E+00
  1.60000000E+01  1.00800000E+00  1.00800000E+00  1.60000000E+01  1.00800000E+00
  1.00800000E+00  1.60000000E+01  1.00800000E+00  1.00800000E+00  1.60000000E+01
  1.00800000E+00  1.00800000E+00  1.60000000E+01  1.00800000E+00  1.00800000E+00
  1.60000000E+01  1.00800000E+00  1.00800000E+00  1.60000000E+01  1.00800000E+00
  1.00800000E+00  1.60000000E+01  1.00800000E+00  1.00800000E+00  1.60000000E+01
  1.00800000E+00  1.00800000E+00  1.60000000E+01  1.00800000E+00  1.00800000E+00
  1.60000000E+01  1.00800000E+00  1.00800000E+00  1.60000000E+01  1.00800000E+00
  1.00800000E+00  1.60000000E+01  1.00800000E+00  1.00800000E+00  1.60000000E+01
  1.00800000E+00  1.00800000E+00  1.60000000E+01  1.00800000E+00  1.00800000E+00
  1.60000000E+01  1.00800000E+00  1.00800000E+00  1.60000000E+01  1.00800000E+00
  1.00800000E+00  1.60000000E+01  1.00800000E+00  1.00800000E+00  1.60000000E+01
  1.00800000E+00  1.00800000E+00  1.60000000E+01  1.00800000E+00  1.00800000E+00
  1.60000000E+01  1.00800000E+00  1.00800000E+00  1.60000000E+01  1.00800000E+00
  1.00800000E+00  1.60000000E+01  1.00800000E+00  1.00800000E+00  1.60000000E+01
  1.00800000E+00  1.00800000E+00  1.60000000E+01  1.00800000E+00  1.00800000E+00
  1.60000000E+01  1.00800000E+00  1.00800000E+00  1.60000000E+01  1.00800000E+00
  1.00800000E+00  1.60000000E+01  1.00800000E+00  1.00800000E+00  1.60000000E+01
  1.00800000E+00  1.00800000E+00  1.60000000E+01  1.00800000E+00  1.00800000E+00
  1.60000000E+01  1.00800000E+00  1.00800000E+00  1.60000000E+01  1.00800000E+00
  1.00800000E+00  1.60000000E+01  1.00800000E+00  1.00800000E+00  1.60000000E+01
  1.00800000E+00  1.00800000E+00  1.60000000E+01  1.00800000E+00  1.00800000E+00
  1.60000000E+01  1.00800000E+00  1.00800000E+00  1.60000000E+01  1.00800000E+00
  1.00800000E+00  1.60000000E+01  1.00800000E+00  1.00800000E+00  1.60000000E+01
  1.00800000E+00  1.00800000E+00  1.60000000E+01  1.00800000E+00  1.00800000E+00
  1.60000000E+01  1.00800000E+00  1.00800000E+00  1.60000000E+01  1.00800000E+00
  1.00800000E+00  1.60000000E+01  1.00800000E+00  1.00800000E+00  1.60000000E+01
  1.00800000E+00  1.00800000E+00  1.60000000E+01  1.00800000E+00  1.00800000E+00
  1.60000000E+01  1.00800000E+00  1.00800000E+00  1.60000000E+01  1.00800000E+00
  1.00800000E+00  1.60000000E+01  1.00800000E+00  1.00800000E+00  1.60000000E+01
  1.00800000E+00  1.00800000E+00  1.60000000E+01  1.00800000E+00  1.00800000E+00
  1.60000000E+01  1.00800000E+00  1.00800000E+00  1.60000000E+01  1.00800000E+00
  1.00800000E+00  1.60000000E+01  1.00800000E+00  1.00800000E+00  1.60000000E+01
  1.00800000E+00  1.00800000E+00  1.60000000E+01  1.00800000E+00  1.00800000E+00
  1.60000000E+01  1.00800000E+00  1.00800000E+00  1.60000000E+01  1.00800000E+00
  1.00800000E+00  1.60000000E+01  1.00800000E+00  1.00800000E+00  1.60000000E+01
  1.00800000E+00  1.00800000E+00  1.60000000E+01  1.00800000E+00  1.00800000E+00
  1.60000000E+01  1.00800000E+00  1.00800000E+00  1.60000000E+01  1.00800000E+00
  1.00800000E+00  1.60000000E+01  1.00800000E+00  1.00800000E+00  1.60000000E+01
  1.00800000E+00  1.00800000E+00  1.60000000E+01  1.00800000E+00  1.00800000E+00
  1.60000000E+01  1.00800000E+00  1.00800000E+00  1.60000000E+01  1.00800000E+00
  1.00800000E+00  1.60000000E+01  1.00800000E+00  1.00800000E+00  1.60000000E+01
  1.00800000E+00  1.00800000E+00  1.60000000E+01  1.00800000E+00  1.00800000E+00
  1.60000000E+01  1.00800000E+00  1.00800000E+00  1.60000000E+01  1.00800000E+00
  1.00800000E+00  1.60000000E+01  1.00800000E+00  1.00800000E+00  1.60000000E+01
  1.00800000E+00  1.00800000E+00  1.60000000E+01  1.00800000E+00  1.00800000E+00
  1.60000000E+01  1.00800000E+00  1.00800000E+00  1.60000000E+01  1.00800000E+00
  1.00800000E+00  1.60000000E+01  1.00800000E+00  1.00800000E+00  1.60000000E+01
  1.00800000E+00  1.00800000E+00  1.60000000E+01  1.00800000E+00  1.00800000E+00
  1.60000000E+01  1.00800000E+00  1.00800000E+00  1.60000000E+01  1.00800000E+00
  1.00800000E+00  1.60000000E+01  1.00800000E+00  1.00800000E+00  1.60000000E+01
  1.00800000E+00  1.00800000E+00  1.60000000E+01  1.00800000E+00  1.00800000E+00
  1.60000000E+01  1.00800000E+00  1.00800000E+00  1.60000000E+01  1.00800000E+00
  1.00800000E+00  1.60000000E+01  1.00800000E+00  1.00800000E+00  1.60000000E+01
  1.00800000E+00  1.00800000E+00  1.60000000E+01  1.00800000E+00  1.00800000E+00
  1.60000000E+01  1.00800000E+00  1.00800000E+00  1.60000000E+01  1.00800000E+00
  1.00800000E+00  1.60000000E+01  1.00800000E+00  1.00800000E+00  1.60000000E+01
  1.00800000E+00  1.00800000E+00  1.60000000E+01  1.00800000E+00  1.00800000E+00
  1.60000000E+01  1.00800000E+00  1.00800000E+00  1.60000000E+01  1.00800000E+00
  1.00800000E+00  1.60000000E+01  1.00800000E+00  1.00800000E+00  1.60000000E+01
  1.00800000E+00  1.00800000E+00  1.60000000E+01  1.00800000E+00  1.00800000E+00
  1.60000000E+01  1.00800000E+00  1.00800000E+00  1.60000000E+01  1.00800000E+00
  1.00800000E+00  1.60000000E+01  1.00800000E+00  1.00800000E+00  1.60000000E+01
  1.00800000E+00  1.00800000E+00  1.60000000E+01  1.00800000E+00  1.00800000E+00
  1.60000000E+01  1.00800000E+00  1.00800000E+00  1.60000000E+01  1.00800000E+00
  1.00800000E+00  1.60000000E+01  1.00800000E+00  1.00800000E+00  1.60000000E+01
  1.00800000E+00  1.00800000E+00  1.60000000E+01  1.00800000E+00  1.00800000E+00
  1.60000000E+01  1.00800000E+00  1.00800000E+00  1.60000000E+01  1.00800000E+00
  1.00800000E+00  1.60000000E+01  1.00800000E+00  1.00800000E+00  1.60000000E+01
  1.00800000E+00  1.00800000E+00  1.60000000E+01  1.00800000E+00  1.00800000E+00
  1.60000000E+01  1.00800000E+00  1.00800000E+00  1.60000000E+01  1.00800000E+00
  1.00800000E+00  1.60000000E+01  1.00800000E+00  1.00800000E+00  1.60000000E+01
  1.00800000E+00  1.00800000E+00  1.60000000E+01  1.00800000E+00  1.00800000E+00
  1.60000000E+01  1.00800000E+00  1.00800000E+00  1.60000000E+01  1.00800000E+00
  1.00800000E+00  1.60000000E+01  1.00800000E+00  1.00800000E+00  1.60000000E+01
  1.00800000E+00  1.00800000E+00  1.60000000E+01  1.00800000E+00  1.00800000E+00
  1.60000000E+01  1.00800000E+00  1.00800000E+00  1.60000000E+01  1.00800000E+00
  1.00800000E+00  1.60000000E+01  1.00800000E+00  1.00800000E+00  1.60000000E+01
  1.00800000E+00  1.00800000E+00  1.60000000E+01  1.00800000E+00  1.00800000E+00
  1.60000000E+01  1.00800000E+00  1.00800000E+00  1.60000000E+01  1.00800000E+00
  1.00800000E+00  1.60000000E+01  1.00800000E+00  1.00800000E+00  1.60000000E+01
  1.00800000E+00  1.00800000E+00  1.60000000E+01  1.00800000E+00  1.00800000E+00
  1.60000000E+01  1.00800000E+00  1.00800000E+00  1.60000000E+01  1.00800000E+00
  1.00800000E+00  1.60000000E+01  1.00800000E+00  1.00800000E+00  1.60000000E+01
  1.00800000E+00  1.00800000E+00  1.60000000E+01  1.00800000E+00  1.00800000E+00
  1.60000000E+01  1.00800000E+00  1.00800000E+00  1.60000000E+01  1.00800000E+00
  1.00800000E+00  1.60000000E+01  1.00800000E+00  1.00800000E+00  1.60000000E+01
  1.00800000E+00  1.00800000E+00  1.60000000E+01  1.00800000E+00  1.00800000E+00
  1.60000000E+01  1.00800000E+00  1.00800000E+00  1.60000000E+01  1.00800000E+00
  1.00800000E+00  1.60000000E+01  1.00800000E+00  1.00800000E+00  1.60000000E+01
  1.00800000E+00  1.00800000E+00  1.60000000E+01  1.00800000E+00  1.00800000E+00
  1.60000000E+01  1.00800000E+00  1.00800000E+00  1.60000000E+01  1.00800000E+00
  1.00800000E+00  1.60000000E+01  1.00800000E+00  1.00800000E+00  1.60000000E+01
  1.00800000E+00  1.00800000E+00  1.60000000E+01  1.00800000E+00  1.00800000E+00
  1.60000000E+01  1.00800000E+00  1.00800000E+00  1.60000000E+01  1.00800000E+00
  1.00800000E+00  1.60000000E+01  1.00800000E+00  1.00800000E+00  1.60000000E+01
  1.00800000E+00  1.00800000E+00  1.60000000E+01  1.00800000E+00  1.00800000E+00
  1.60000000E+01  1.00800000E+00  1.00800000E+00  1.60000000E+01  1.00800000E+00
  1.00800000E+00  1.60000000E+01  1.00800000E+00  1.00800000E+00  1.60000000E+01
  1.00800000E+00  1.00800000E+00  1.60000000E+01  1.00800000E+00  1.00800000E+00
  1.60000000E+01  1.00800000E+00  1.00800000E+00  1.60000000E+01  1.00800000E+00
  1.00800000E+00  1.60000000E+01  1.00800000E+00  1.00800000E+00  1.60000000E+01
  1.00800000E+00  1.00800000E+00  1.60000000E+01  1.00800000E+00  1.00800000E+00
  1.60000000E+01  1.00800000E+00  1.00800000E+00  1.60000000E+01  1.00800000E+00
  1.00800000E+00  1.60000000E+01  1.00800000E+00  1.00800000E+00  1.60000000E+01
  1.00800000E+00  1.00800000E+00  1.60000000E+01  1.00800000E+00  1.00800000E+00
  1.60000000E+01  1.00800000E+00  1.00800000E+00  1.60000000E+01  1.00800000E+00
  1.00800000E+00  1.60000000E+01  1.00800000E+00  1.00800000E+00  1.60000000E+01
  1.00800000E+00  1.00800000E+00  1.60000000E+01  1.00800000E+00  1.00800000E+00
  1.60000000E+01  1.00800000E+00  1.00800000E+00  1.60000000E+01  1.00800000E+00
  1.00800000E+00  1.60000000E+01  1.00800000E+00  1.00800000E+00  1.60000000E+01
  1.00800000E+00  1.00800000E+00  1.60000000E+01  1.00800000E+00  1.00800000E+00
  1.60000000E+01  1.00800000E+00  1.00800000E+00  1.60000000E+01  1.00800000E+00
  1.00800000E+00  1.60000000E+01  1.00800000E+00  1.00800000E+00  1.60000000E+01
  1.00800000E+00  1.00800000E+00  1.60000000E+01  1.00800000E+00  1.00800000E+00
  1.60000000E+01  1.00800000E+00  1.00800000E+00  1.60000000E+01  1.00800000E+00
  1.00800000E+00  1.60000000E+01  1.00800000E+00  1.00800000E+00  1.60000000E+01
  1.00800000E+00  1.00800000E+00  1.60000000E+01  1.00800000E+00  1.00800000E+00
  1.60000000E+01  1.00800000E+00  1.00800000E+00  1.60000000E+01  1.00800000E+00
  1.00800000E+00  1.60000000E+01  1.00800000E+00  1.00800000E+00  1.60000000E+01
  1.00800000E+00  1.00800000E+00  1.60000000E+01  1.00800000E+00  1.00800000E+00
  1.60000000E+01  1.00800000E+00  1.00800000E+00  1.60000000E+01  1.00800000E+00
  1.00800000E+00  1.60000000E+01  1.00800000E+00  1.00800000E+00  1.60000000E+01
  1.00800000E+00  1.00800000E+00  1.60000000E+01  1.00800000E+00  1.00800000E+00
  1.60000000E+01  1.00800000E+00  1.00800000E+00  1.60000000E+01  1.00800000E+00
  1.00800000E+00  1.60000000E+01  1.00800000E+00  1.00800000E+00  1.60000000E+01
  1.00800000E+00  1.00800000E+00  1.60000000E+01  1.00800000E+00  1.00800000E+00
  1.60000000E+01  1.00800000E+00  1.00800000E+00  1.60000000E+01  1.00800000E+00
  1.00800000E+00  1.60000000E+01  1.00800000E+00  1.00800000E+00  1.60000000E+01
  1.00800000E+00  1.00800000E+00  1.60000000E+01  1.00800000E+00  1.00800000E+00
  1.60000000E+01  1.00800000E+00  1.00800000E+00  1.60000000E+01  1.00800000E+00
  1.00800000E+00  1.60000000E+01  1.00800000E+00  1.00800000E+00  1.60000000E+01
  1.00800000E+00  1.00800000E+00  1.60000000E+01  1.00800000E+00  1.00800000E+00
  1.60000000E+01  1.00800000E+00  1.00800000E+00  1.60000000E+01  1.00800000E+00
  1.00800000E+00  1.60000000E+01  1.00800000E+00  1.00800000E+00  1.60000000E+01
  1.00800000E+00  1.00800000E+00  1.60000000E+01  1.00800000E+00  1.00800000E+00
  1.60000000E+01  1.00800000E+00  1.00800000E+00  1.60000000E+01  1.00800000E+00
  1.00800000E+00  1.60000000E+01  1.00800000E+00  1.00800000E+00  1.60000000E+01
  1.00800000E+00  1.00800000E+00  1.60000000E+01  1.00800000E+00  1.00800000E+00
  1.60000000E+01  1.00800000E+00  1.00800000E+00  1.60000000E+01  1.00800000E+00
  1.00800000E+00  1.60000000E+01  1.00800000E+00  1.00800000E+00  1.60000000E+01
  1.00800000E+00  1.00800000E+00  1.60000000E+01  1.00800000E+00  1.00800000E+00
  1.60000000E+01  1.00800000E+00  1.00800000E+00  1.60000000E+01  1.00800000E+00
  1.00800000E+00  1.60000000E+01  1.00800000E+00  1.00800000E+00  1.60000000E+01
  1.00800000E+00  1.00800000E+00  1.60000000E+01  1.00800000E+00  1.00800000E+00
  1.60000000E+01  1.00800000E+00  1.00800000E+00  1.60000000E+01  1.00800000E+00
  1.00800000E+00  1.60000000E+01  1.00800000E+00  1.00800000E+00  1.60000000E+01
  1.00800000E+00  1.00800000E+00  1.60000000E+01  1.00800000E+00  1.00800000E+00
  1.60000000E+01  1.00800000E+00  1.00800000E+00  1.60000000E+01  1.00800000E+00
  1.00800000E+00  1.60000000E+01  1.00800000E+00  1.00800000E+00  1.60000000E+01
  1.00800000E+00  1.00800000E+00  1.60000000E+01  1.00800000E+00  1.00800000E+00
  1.60000000E+01  1.00800000E+00  1.00800000E+00  1.60000000E+01  1.00800000E+00
  1.00800000E+00  1.60000000E+01  1.00800000E+00  1.00800000E+00  1.60000000E+01
  1.00800000E+00  1.00800000E+00  1.60000000E+01  1.00800000E+00  1.00800000E+00
  1.60000000E+01  1.00800000E+00  1.00800000E+00  1.60000000E+01  1.00800000E+00
  1.00800000E+00  1.60000000E+01  1.00800000E+00  1.00800000E+00  1.60000000E+01
  1.00800000E+00  1.00800000E+00  1.60000000E+01  1.00800000E+00  1.00800000E+00
  1.60000000E+01  1.00800000E+00  1.00800000E+00  1.60000000E+01  1.00800000E+00
  1.00800000E+00  1.60000000E+01  1.00800000E+00  1.00800000E+00  1.60000000E+01
  1.00800000E+00  1.00800000E+00  1.60000000E+01  1.00800000E+00  1.00800000E+00
  1.60000000E+01  1.00800000E+00  1.00800000E+00  1.60000000E+01  1.00800000E+00
  1.00800000E+00  1.60000000E+01  1.00800000E+00  1.00800000E+00  1.60000000E+01
  1.00800000E+00  1.00800000E+00  1.60000000E+01  1.00800000E+00  1.00800000E+00
  1.60000000E+01  1.00800000E+00  1.00800000E+00  1.60000000E+01  1.00800000E+00
  1.00800000E+00  1.60000000E+01  1.00800000E+00  1.00800000E+00  1.60000000E+01
  1.00800000E+00  1.00800000E+00  1.60000000E+01  1.00800000E+00  1.00800000E+00
  1.60000000E+01  1.00800000E+00  1.00800000E+00  1.60000000E+01  1.00800000E+00
  1.00800000E+00  1.60000000E+01  1.00800000E+00  1.00800000E+00  1.60000000E+01
  1.00800000E+00  1.00800000E+00  1.60000000E+01  1.00800000E+00  1.00800000E+00
  1.60000000E+01  1.00800000E+00  1.00800000E+00  1.60000000E+01  1.00800000E+00
  1.00800000E+00  1.60000000E+01  1.00800000E+00  1.00800000E+00  1.60000000E+01
  1.00800000E+00  1.00800000E+00  1.60000000E+01  1.00800000E+00  1.00800000E+00
  1.60000000E+01  1.00800000E+00  1.00800000E+00  1.60000000E+01  1.00800000E+00
  1.00800000E+00  1.60000000E+01  1.00800000E+00  1.00800000E+00  1.60000000E+01
  1.00800000E+00  1.00800000E+00  1.60000000E+01  1.00800000E+00  1.00800000E+00
  1.60000000E+01  1.00800000E+00  1.00800000E+00  1.60000000E+01  1.00800000E+00
  1.00800000E+00  1.60000000E+01  1.00800000E+00  1.00800000E+00  1.60000000E+01
  1.00800000E+00  1.00800000E+00  1.60000000E+01  1.00800000E+00  1.00800000E+00
  1.60000000E+01  1.00800000E+00  1.00800000E+00  1.60000000E+01  1.00800000E+00
  1.00800000E+00  1.60000000E+01  1.00800000E+00  1.00800000E+00  1.60000000E+01
  1.00800000E+00  1.00800000E+00  1.60000000E+01  1.00800000E+00  1.00800000E+00
  1.60000000E+01  1.00800000E+00  1.00800000E+00  1.60000000E+01  1.00800000E+00
  1.00800000E+00  1.60000000E+01  1.00800000E+00  1.00800000E+00  1.60000000E+01
  1.00800000E+00  1.00800000E+00  1.60000000E+01  1.00800000E+00  1.00800000E+00
  1.60000000E+01  1.00800000E+00  1.00800000E+00  1.60000000E+01  1.00800000E+00
  1.00800000E+00  1.60000000E+01  1.00800000E+00  1.00800000E+00  1.60000000E+01
  1.00800000E+00  1.00800000E+00  1.60000000E+01  1.00800000E+00  1.00800000E+00
  1.60000000E+01  1.00800000E+00  1.00800000E+00  1.60000000E+01  1.00800000E+00
  1.00800000E+00  1.60000000E+01  1.00800000E+00  1.00800000E+00  1.60000000E+01
  1.00800000E+00  1.00800000E+00  1.60000000E+01  1.00800000E+00  1.00800000E+00
  1.60000000E+01  1.00800000E+00  1.00800000E+00  1.60000000E+01  1.00800000E+00
  1.00800000E+00  1.60000000E+01  1.00800000E+00  1.00800000E+00  1.60000000E+01
  1.00800000E+00  1.00800000E+00  1.60000000E+01  1.00800000E+00  1.00800000E+00
  1.60000000E+01  1.00800000E+00  1.00800000E+00  1.60000000E+01  1.00800000E+00
  1.00800000E+00  1.60000000E+01  1.00800000E+00  1.00800000E+00  1.60000000E+01
  1.00800000E+00  1.00800000E+00  1.60000000E+01  1.00800000E+00  1.00800000E+00
  1.60000000E+01  1.00800000E+00  1.00800000E+00  1.60000000E+01  1.00800000E+00
  1.00800000E+00  1.60000000E+01  1.00800000E+00  1.00800000E+00  1.60000000E+01
  1.00800000E+00  1.00800000E+00  1.60000000E+01  1.00800000E+00  1.00800000E+00
  1.60000000E+01  1.00800000E+00  1.00800000E+00  1.60000000E+01  1.00800000E+00
  1.00800000E+00  1.60000000E+01  1.00800000E+00  1.00800000E+00  1.60000000E+01
  1.00800000E+00  1.00800000E+00  1.60000000E+01  1.00800000E+00  1.00800000E+00
  1.60000000E+01  1.00800000E+00  1.00800000E+00  1.60000000E+01  1.00800000E+00
  1.00800000E+00  1.60000000E+01  1.00800000E+00  1.00800000E+00  1.60000000E+01
  1.00800000E+00  1.00800000E+00  1.60000000E+01  1.00800000E+00  1.00800000E+00
  1.60000000E+01  1.00800000E+00  1.00800000E+00  1.60000000E+01  1.00800000E+00
  1.00800000E+00  1.60000000E+01  1.00800000E+00  1.00800000E+00  1.60000000E+01
  1.00800000E+00  1.00800000E+00  1.60000000E+01  1.00800000E+00  1.00800000E+00
  1.60000000E+01  1.00800000E+00  1.00800000E+00  1.60000000E+01  1.00800000E+00
  1.00800000E+00  1.60000000E+01  1.00800000E+00  1.00800000E+00  1.60000000E+01
  1.00800000E+00  1.00800000E+00  1.60000000E+01  1.00800000E+00  1.00800000E+00
  1.60000000E+01  1.00800000E+00  1.00800000E+00  1.60000000E+01  1.00800000E+00
  1.00800000E+00  1.60000000E+01  1.00800000E+00  1.00800000E+00  1.60000000E+01
  1.00800000E+00  1.00800000E+00  1.60000000E+01  1.00800000E+00  1.00800000E+00
  1.60000000E+01  1.00800000E+00  1.00800000E+00  1.60000000E+01  1.00800000E+00
  1.00800000E+00  1.60000000E+01  1.00800000E+00  1.00800000E+00  1.60000000E+01
  1.00800000E+00  1.00800000E+00  1.60000000E+01  1.00800000E+00  1.00800000E+00
  1.60000000E+01  1.00800000E+00  1.00800000E+00  1.60000000E+01  1.00800000E+00
  1.00800000E+00  1.60000000E+01  1.00800000E+00  1.00800000E+00  1.60000000E+01
  1.00800000E+00  1.00800000E+00  1.60000000E+01  1.00800000E+00  1.00800000E+00
  1.60000000E+01  1.00800000E+00  1.00800000E+00  1.60000000E+01  1.00800000E+00
  1.00800000E+00  1.60000000E+01  1.00800000E+00  1.00800000E+00  1.60000000E+01
  1.00800000E+00  1.00800000E+00  1.60000000E+01  1.00800000E+00  1.00800000E+00
  1.60000000E+01  1.00800000E+00  1.00800000E+00  1.60000000E+01  1.00800000E+00
  1.00800000E+00  1.60000000E+01  1.00800000E+00  1.00800000E+00  1.60000000E+01
  1.00800000E+00  1.00800000E+00  1.60000000E+01  1.00800000E+00  1.00800000E+00
  1.60000000E+01  1.00800000E+00  1.00800000E+00  1.60000000E+01  1.00800000E+00
  1.00800000E+00  1.60000000E+01  1.00800000E+00  1.00800000E+00  1.60000000E+01
  1.00800000E+00  1.00800000E+00  1.60000000E+01  1.00800000E+00  1.00800000E+00
  1.60000000E+01  1.00800000E+00  1.00800000E+00  1.60000000E+01  1.00800000E+00
  1.00800000E+00  1.60000000E+01  1.00800000E+00  1.00800000E+00  1.60000000E+01
  1.00800000E+00  1.00800000E+00  1.60000000E+01  1.00800000E+00  1.00800000E+00
  1.60000000E+01  1.00800000E+00  1.00800000E+00  1.60000000E+01  1.00800000E+00
  1.00800000E+00  1.60000000E+01  1.00800000E+00  1.00800000E+00  1.60000000E+01
  1.00800000E+00  1.00800000E+00  1.60000000E+01  1.00800000E+00  1.00800000E+00
  1.60000000E+01  1.00800000E+00  1.00800000E+00  1.60000000E+01  1.00800000E+00
  1.00800000E+00  1.60000000E+01  1.00800000E+00  1.00800000E+00  1.60000000E+01
  1.00800000E+00  1.00800000E+00  1.60000000E+01  1.00800000E+00  1.00800000E+00
  1.60000000E+01  1.00800000E+00  1.00800000E+00  1.60000000E+01  1.00800000E+00
  1.00800000E+00  1.60000000E+01  1.00800000E+00  1.00800000E+00  1.60000000E+01
  1.00800000E+00  1.00800000E+00  1.60000000E+01  1.00800000E+00  1.00800000E+00
  1.60000000E+01  1.00800000E+00  1.00800000E+00  1.60000000E+01  1.00800000E+00
  1.00800000E+00  1.60000000E+01  1.00800000E+00  1.00800000E+00  1.60000000E+01
  1.00800000E+00  1.00800000E+00  1.60000000E+01  1.00800000E+00  1.00800000E+00
  1.60000000E+01  1.00800000E+00  1.00800000E+00  1.60000000E+01  1.00800000E+00
  1.00800000E+00  1.60000000E+01  1.00800000E+00  1.00800000E+00  1.60000000E+01
  1.00800000E+00  1.00800000E+00  1.60000000E+01  1.00800000E+00  1.00800000E+00
  1.60000000E+01  1.00800000E+00  1.00800000E+00  1.60000000E+01  1.00800000E+00
  1.00800000E+00  1.60000000E+01  1.00800000E+00  1.00800000E+00  1.60000000E+01
  1.00800000E+00  1.00800000E+00  1.60000000E+01  1.00800000E+00  1.00800000E+00
  1.60000000E+01  1.00800000E+00  1.00800000E+00  1.60000000E+01  1.00800000E+00
  1.00800000E+00  1.60000000E+01  1.00800000E+00  1.00800000E+00  1.60000000E+01
  1.00800000E+00  1.00800000E+00  1.60000000E+01  1.00800000E+00  1.00800000E+00
  1.60000000E+01  1.00800000E+00  1.00800000E+00  1.60000000E+01  1.00800000E+00
  1.00800000E+00  1.60000000E+01  1.00800000E+00  1.00800000E+00  1.60000000E+01
  1.00800000E+00  1.00800000E+00  1.60000000E+01  1.00800000E+00  1.00800000E+00
  1.60000000E+01  1.00800000E+00  1.00800000E+00  1.60000000E+01  1.00800000E+00
  1.00800000E+00  1.60000000E+01  1.00800000E+00  1.00800000E+00  1.60000000E+01
  1.00800000E+00  1.00800000E+00  1.60000000E+01  1.00800000E+00  1.00800000E+00
  1.60000000E+01  1.00800000E+00  1.00800000E+00  1.60000000E+01  1.00800000E+00
  1.00800000E+00  1.60000000E+01  1.00800000E+00  1.00800000E+00  1.60000000E+01
  1.00800000E+00  1.00800000E+00  1.60000000E+01  1.00800000E+00  1.00800000E+00
  1.60000000E+01  1.00800000E+00  1.00800000E+00  1.60000000E+01  1.00800000E+00
  1.00800000E+00  1.60000000E+01  1.00800000E+00  1.00800000E+00  1.60000000E+01
  1.00800000E+00  1.00800000E+00  1.60000000E+01  1.00800000E+00  1.00800000E+00
  1.60000000E+01  1.00800000E+00  1.00800000E+00  1.60000000E+01  1.00800000E+00
  1.00800000E+00  1.60000000E+01  1.00800000E+00  1.00800000E+00  1.60000000E+01
  1.00800000E+00  1.00800000E+00  1.60000000E+01  1.00800000E+00  1.00800000E+00
  1.60000000E+01  1.00800000E+00  1.00800000E+00  1.60000000E+01  1.00800000E+00
  1.00800000E+00  1.60000000E+01  1.00800000E+00  1.00800000E+00  1.60000000E+01
  1.00800000E+00  1.00800000E+00  1.60000000E+01  1.00800000E+00  1.00800000E+00
  1.60000000E+01  1.00800000E+00  1.00800000E+00  1.60000000E+01  1.00800000E+00
  1.00800000E+00  1.60000000E+01  1.00800000E+00  1.00800000E+00  1.60000000E+01
  1.00800000E+00  1.00800000E+00  1.60000000E+01  1.00800000E+00  1.00800000E+00
  1.60000000E+01  1.00800000E+00  1.00800000E+00  1.60000000E+01  1.00800000E+00
  1.00800000E+00  1.60000000E+01  1.00800000E+00  1.00800000E+00  1.60000000E+01
  1.00800000E+00  1.00800000E+00  1.60000000E+01  1.00800000E+00  1.00800000E+00
  1.60000000E+01  1.00800000E+00  1.00800000E+00  1.60000000E+01  1.00800000E+00
  1.00800000E+00  1.60000000E+01  1.00800000E+00  1.00800000E+00  1.60000000E+01
  1.00800000E+00  1.00800000E+00  1.60000000E+01  1.00800000E+00  1.00800000E+00
  1.60000000E+01  1.00800000E+00  1.00800000E+00  1.60000000E+01  1.00800000E+00
  1.00800000E+00  1.60000000E+01  1.00800000E+00  1.00800000E+00  1.60000000E+01
  1.00800000E+00  1.00800000E+00  1.60000000E+01  1.00800000E+00  1.00800000E+00
  1.60000000E+01  1.00800000E+00  1.00800000E+00  1.60000000E+01  1.00800000E+00
  1.00800000E+00  1.60000000E+01  1.00800000E+00  1.00800000E+00  1.60000000E+01
  1.00800000E+00  1.00800000E+00  1.60000000E+01  1.00800000E+00  1.00800000E+00
  1.60000000E+01  1.00800000E+00  1.00800000E+00  1.60000000E+01  1.00800000E+00
  1.00800000E+00  1.60000000E+01  1.00800000E+00  1.00800000E+00  1.60000000E+01
  1.00800000E+00  1.00800000E+00  1.60000000E+01  1.00800000E+00  1.00800000E+00
  1.60000000E+01  1.00800000E+00  1.00800000E+00  1.60000000E+01  1.00800000E+00
  1.00800000E+00  1.60000000E+01  1.00800000E+00  1.00800000E+00  1.60000000E+01
  1.00800000E+00  1.00800000E+00  1.60000000E+01  1.00800000E+00  1.00800000E+00
  1.60000000E+01  1.00800000E+00  1.00800000E+00  1.60000000E+01  1.00800000E+00
  1.00800000E+00  1.60000000E+01  1.00800000E+00  1.00800000E+00  1.60000000E+01
  1.00800000E+00  1.00800000E+00  1.60000000E+01  1.00800000E+00  1.00800000E+00
  1.60000000E+01  1.00800000E+00  1.00800000E+00  1.60000000E+01  1.00800000E+00
  1.00800000E+00  1.60000000E+01  1.00800000E+00  1.00800000E+00  1.60000000E+01
  1.00800000E+00  1.00800000E+00  1.60000000E+01  1.00800000E+00  1.00800000E+00
  1.60000000E+01  1.00800000E+00  1.00800000E+00  1.60000000E+01  1.00800000E+00
  1.00800000E+00  1.60000000E+01  1.00800000E+00  1.00800000E+00  1.60000000E+01
  1.00800000E+00  1.00800000E+00  1.60000000E+01  1.00800000E+00  1.00800000E+00
  1.60000000E+01  1.00800000E+00  1.00800000E+00  1.60000000E+01  1.00800000E+00
  1.00800000E+00  1.60000000E+01  1.00800000E+00  1.00800000E+00  1.60000000E+01
  1.00800000E+00  1.00800000E+00  1.60000000E+01  1.00800000E+00  1.00800000E+00
  1.60000000E+01  1.00800000E+00  1.00800000E+00  1.60000000E+01  1.00800000E+00
  1.00800000E+00  1.60000000E+01  1.00800000E+00  1.00800000E+00  1.60000000E+01
  1.00800000E+00  1.00800000E+00  1.60000000E+01  1.00800000E+00  1.00800000E+00
  1.60000000E+01  1.00800000E+00  1.00800000E+00  1.60000000E+01  1.00800000E+00
  1.00800000E+00  1.60000000E+01  1.00800000E+00  1.00800000E+00  1.60000000E+01
  1.00800000E+00  1.00800000E+00  1.60000000E+01  1.00800000E+00  1.00800000E+00
  1.60000000E+01  1.00800000E+00  1.00800000E+00  1.60000000E+01  1.00800000E+00
  1.00800000E+00  1.60000000E+01  1.00800000E+00  1.00800000E+00  1.60000000E+01
  1.00800000E+00  1.00800000E+00  1.60000000E+01  1.00800000E+00  1.00800000E+00
  1.60000000E+01  1.00800000E+00  1.00800000E+00  1.60000000E+01  1.00800000E+00
  1.00800000E+00  1.60000000E+01  1.00800000E+00  1.00800000E+00  1.60000000E+01
  1.00800000E+00  1.00800000E+00  1.60000000E+01  1.00800000E+00  1.00800000E+00
  1.60000000E+01  1.00800000E+00  1.00800000E+00  1.60000000E+01  1.00800000E+00
  1.00800000E+00  1.60000000E+01  1.00800000E+00  1.00800000E+00  1.60000000E+01
  1.00800000E+00  1.00800000E+00  1.60000000E+01  1.00800000E+00  1.00800000E+00
  1.60000000E+01  1.00800000E+00  1.00800000E+00  1.60000000E+01  1.00800000E+00
  1.00800000E+00  1.60000000E+01  1.00800000E+00  1.00800000E+00  1.60000000E+01
  1.00800000E+00  1.00800000E+00  1.60000000E+01  1.00800000E+00  1.00800000E+00
  1.60000000E+01  1.00800000E+00  1.00800000E+00  1.60000000E+01  1.00800000E+00
  1.00800000E+00  1.60000000E+01  1.00800000E+00  1.00800000E+00  1.60000000E+01
  1.00800000E+00  1.00800000E+00  1.60000000E+01  1.00800000E+00  1.00800000E+00
  1.60000000E+01  1.00800000E+00  1.00800000E+00  1.60000000E+01  1.00800000E+00
  1.00800000E+00  1.60000000E+01  1.00800000E+00  1.00800000E+00  1.60000000E+01
  1.00800000E+00  1.00800000E+00  1.60000000E+01  1.00800000E+00  1.00800000E+00
  1.60000000E+01  1.00800000E+00  1.00800000E+00  1.60000000E+01  1.00800000E+00
  1.00800000E+00  1.60000000E+01  1.00800000E+00  1.00800000E+00  1.60000000E+01
  1.00800000E+00  1.00800000E+00  1.60000000E+01  1.00800000E+00  1.00800000E+00
  1.60000000E+01  1.00800000E+00  1.00800000E+00  1.60000000E+01  1.00800000E+00
  1.00800000E+00  1.60000000E+01  1.00800000E+00  1.00800000E+00  1.60000000E+01
  1.00800000E+00  1.00800000E+00  1.60000000E+01  1.00800000E+00  1.00800000E+00
  1.60000000E+01  1.00800000E+00  1.00800000E+00  1.60000000E+01  1.00800000E+00
  1.00800000E+00  1.60000000E+01  1.00800000E+00  1.00800000E+00  1.60000000E+01
  1.00800000E+00  1.00800000E+00  1.60000000E+01  1.00800000E+00  1.00800000E+00
  1.60000000E+01  1.00800000E+00  1.00800000E+00  1.60000000E+01  1.00800000E+00
  1.00800000E+00  1.60000000E+01  1.00800000E+00  1.00800000E+00  1.60000000E+01
  1.00800000E+00  1.00800000E+00  1.60000000E+01  1.00800000E+00  1.00800000E+00
  1.60000000E+01  1.00800000E+00  1.00800000E+00  1.60000000E+01  1.00800000E+00
  1.00800000E+00  1.60000000E+01  1.00800000E+00  1.00800000E+00  1.60000000E+01
  1.00800000E+00  1.00800000E+00  1.60000000E+01  1.00800000E+00  1.00800000E+00
  1.60000000E+01  1.00800000E+00  1.00800000E+00  1.60000000E+01  1.00800000E+00
  1.00800000E+00  1.60000000E+01  1.00800000E+00  1.00800000E+00  1.60000000E+01
  1.00800000E+00  1.00800000E+00  1.60000000E+01  1.00800000E+00  1.00800000E+00
  1.60000000E+01  1.00800000E+00  1.00800000E+00  1.60000000E+01  1.00800000E+00
  1.00800000E+00  1.60000000E+01  1.00800000E+00  1.00800000E+00  1.60000000E+01
  1.00800000E+00  1.00800000E+00  1.60000000E+01  1.00800000E+00  1.00800000E+00
  1.60000000E+01  1.00800000E+00  1.00800000E+00  1.60000000E+01  1.00800000E+00
  1.00800000E+00  1.60000000E+01  1.00800000E+00  1.00800000E+00  1.60000000E+01
  1.00800000E+00  1.00800000E+00  1.60000000E+01  1.00800000E+00  1.00800000E+00
  1.60000000E+01  1.00800000E+00  1.00800000E+00  1.60000000E+01  1.00800000E+00
  1.00800000E+00  1.60000000E+01  1.00800000E+00  1.00800000E+00  1.60000000E+01
  1.00800000E+00  1.00800000E+00  1.60000000E+01  1.00800000E+00  1.00800000E+00
  1.60000000E+01  1.00800000E+00  1.00800000E+00  1.60000000E+01  1.00800000E+00
  1.00800000E+00  1.60000000E+01  1.00800000E+00  1.00800000E+00  1.60000000E+01
  1.00800000E+00  1.00800000E+00  1.60000000E+01  1.00800000E+00  1.00800000E+00
  1.60000000E+01  1.00800000E+00  1.00800000E+00  1.60000000E+01  1.00800000E+00
  1.00800000E+00  1.60000000E+01  1.00800000E+00  1.00800000E+00  1.60000000E+01
  1.00800000E+00  1.00800000E+00  1.60000000E+01  1.00800000E+00  1.00800000E+00
  1.60000000E+01  1.00800000E+00  1.00800000E+00  1.60000000E+01  1.00800000E+00
  1.00800000E+00  1.60000000E+01  1.00800000E+00  1.00800000E+00  1.60000000E+01
  1.00800000E+00  1.00800000E+00  1.60000000E+01  1.00800000E+00  1.00800000E+00
  1.60000000E+01  1.00800000E+00  1.00800000E+00  1.60000000E+01  1.00800000E+00
  1.00800000E+00  1.60000000E+01  1.00800000E+00  1.00800000E+00  1.60000000E+01
  1.00800000E+00  1.00800000E+00  1.60000000E+01  1.00800000E+00  1.00800000E+00
  1.60000000E+01  1.00800000E+00  1.00800000E+00  1.60000000E+01  1.00800000E+00
  1.00800000E+00  1.60000000E+01  1.00800000E+00  1.00800000E+00  1.60000000E+01
  1.00800000E+00  1.00800000E+00  1.60000000E+01  1.00800000E+00  1.00800000E+00
  1.60000000E+01  1.00800000E+00  1.00800000E+00  1.60000000E+01  1.00800000E+00
  1.00800000E+00  1.60000000E+01  1.00800000E+00  1.00800000E+00  1.60000000E+01
  1.00800000E+00  1.00800000E+00  1.60000000E+01  1.00800000E+00  1.00800000E+00
  1.60000000E+01  1.00800000E+00  1.00800000E+00  1.60000000E+01  1.00800000E+00
  1.00800000E+00  1.60000000E+01  1.00800000E+00  1.00800000E+00  1.60000000E+01
  1.00800000E+00  1.00800000E+00  1.60000000E+01  1.00800000E+00  1.00800000E+00
  1.60000000E+01  1.00800000E+00  1.00800000E+00  1.60000000E+01  1.00800000E+00
  1.00800000E+00  1.60000000E+01  1.00800000E+00  1.00800000E+00  1.60000000E+01
  1.00800000E+00  1.00800000E+00  1.60000000E+01  1.00800000E+00  1.00800000E+00
  1.60000000E+01  1.00800000E+00  1.00800000E+00  1.60000000E+01  1.00800000E+00
  1.00800000E+00  1.60000000E+01  1.00800000E+00  1.00800000E+00  1.60000000E+01
  1.00800000E+00  1.00800000E+00  1.60000000E+01  1.00800000E+00  1.00800000E+00
  1.60000000E+01  1.00800000E+00  1.00800000E+00  1.60000000E+01  1.00800000E+00
  1.00800000E+00  1.60000000E+01  1.00800000E+00  1.00800000E+00  1.60000000E+01
  1.00800000E+00  1.00800000E+00  1.60000000E+01  1.00800000E+00  1.00800000E+00
  1.60000000E+01  1.00800000E+00  1.00800000E+00  1.60000000E+01  1.00800000E+00
  1.00800000E+00  1.60000000E+01  1.00800000E+00  1.00800000E+00  1.60000000E+01
  1.00800000E+00  1.00800000E+00  1.60000000E+01  1.00800000E+00  1.00800000E+00
  1.60000000E+01  1.00800000E+00  1.00800000E+00  1.60000000E+01  1.00800000E+00
  1.00800000E+00  1.60000000E+01  1.00800000E+00  1.00800000E+00  1.60000000E+01
  1.00800000E+00  1.00800000E+00  1.60000000E+01  1.00800000E+00  1.00800000E+00
  1.60000000E+01  1.00800000E+00  1.00800000E+00  1.60000000E+01  1.00800000E+00
  1.00800000E+00  1.60000000E+01  1.00800000E+00  1.00800000E+00  1.60000000E+01
  1.00800000E+00  1.00800000E+00  1.60000000E+01  1.00800000E+00  1.00800000E+00
  1.60000000E+01  1.00800000E+00  1.00800000E+00  1.60000000E+01  1.00800000E+00
  1.00800000E+00  1.60000000E+01  1.00800000E+00  1.00800000E+00  1.60000000E+01
  1.00800000E+00  1.00800000E+00  1.60000000E+01  1.00800000E+00  1.00800000E+00
  1.60000000E+01  1.00800000E+00  1.00800000E+00  1.60000000E+01  1.00800000E+00
  1.00800000E+00  1.60000000E+01  1.00800000E+00  1.00800000E+00  1.60000000E+01
  1.00800000E+00  1.00800000E+00  1.60000000E+01  1.00800000E+00  1.00800000E+00
  1.60000000E+01  1.00800000E+00  1.00800000E+00  1.60000000E+01  1.00800000E+00
  1.00800000E+00  1.60000000E+01  1.00800000E+00  1.00800000E+00  1.60000000E+01
  1.00800000E+00  1.00800000E+00  1.60000000E+01  1.00800000E+00  1.00800000E+00
  1.60000000E+01  1.00800000E+00  1.00800000E+00  1.60000000E+01  1.00800000E+00
  1.00800000E+00  1.60000000E+01  1.00800000E+00  1.00800000E+00  1.60000000E+01
  1.00800000E+00  1.00800000E+00  1.60000000E+01  1.00800000E+00  1.00800000E+00
  1.60000000E+01  1.00800000E+00  1.00800000E+00  1.60000000E+01  1.00800000E+00
  1.00800000E+00  1.60000000E+01  1.00800000E+00  1.00800000E+00  1.60000000E+01
  1.00800000E+00  1.00800000E+00  1.60000000E+01  1.00800000E+00  1.00800000E+00
  1.60000000E+01  1.00800000E+00  1.00800000E+00  1.60000000E+01  1.00800000E+00
  1.00800000E+00  1.60000000E+01  1.00800000E+00  1.00800000E+00  1.60000000E+01
  1.00800000E+00  1.00800000E+00  1.60000000E+01  1.00800000E+00  1.00800000E+00
  1.60000000E+01  1.00800000E+00  1.00800000E+00  1.60000000E+01  1.00800000E+00
  1.00800000E+00  1.60000000E+01  1.00800000E+00  1.00800000E+00  1.60000000E+01
  1.00800000E+00  1.00800000E+00  1.60000000E+01  1.00800000E+00  1.00800000E+00
  1.60000000E+01  1.00800000E+00  1.00800000E+00  1.60000000E+01  1.00800000E+00
  1.00800000E+00  1.60000000E+01  1.00800000E+00  1.00800000E+00  1.60000000E+01
  1.00800000E+00  1.00800000E+00  1.60000000E+01  1.00800000E+00  1.00800000E+00
  1.60000000E+01  1.00800000E+00  1.00800000E+00  1.60000000E+01  1.00800000E+00
  1.00800000E+00  1.60000000E+01  1.00800000E+00  1.00800000E+00  1.60000000E+01
  1.00800000E+00  1.00800000E+00  1.60000000E+01  1.00800000E+00  1.00800000E+00
  1.60000000E+01  1.00800000E+00  1.00800000E+00  1.60000000E+01  1.00800000E+00
  1.00800000E+00  1.60000000E+01  1.00800000E+00  1.00800000E+00  1.60000000E+01
  1.00800000E+00  1.00800000E+00  1.60000000E+01  1.00800000E+00  1.00800000E+00
  1.60000000E+01  1.00800000E+00  1.00800000E+00  1.60000000E+01  1.00800000E+00
  1.00800000E+00  1.60000000E+01  1.00800000E+00  1.00800000E+00  1.60000000E+01
  1.00800000E+00  1.00800000E+00  1.60000000E+01  1.00800000E+00  1.00800000E+00
  1.60000000E+01  1.00800000E+00  1.00800000E+00  1.60000000E+01  1.00800000E+00
  1.00800000E+00  1.60000000E+01  1.00800000E+00  1.00800000E+00  1.60000000E+01
  1.00800000E+00  1.00800000E+00  1.60000000E+01  1.00800000E+00  1.00800000E+00
  1.60000000E+01  1.00800000E+00  1.00800000E+00  1.60000000E+01  1.00800000E+00
  1.00800000E+00  1.60000000E+01  1.00800000E+00  1.00800000E+00  1.60000000E+01
  1.00800000E+00  1.00800000E+00  1.60000000E+01  1.00800000E+00  1.00800000E+00
  1.60000000E+01  1.00800000E+00  1.00800000E+00  1.60000000E+01  1.00800000E+00
  1.00800000E+00  1.60000000E+01  1.00800000E+00  1.00800000E+00  1.60000000E+01
  1.00800000E+00  1.00800000E+00  1.60000000E+01  1.00800000E+00  1.00800000E+00
  1.60000000E+01  1.00800000E+00  1.00800000E+00  1.60000000E+01  1.00800000E+00
  1.00800000E+00  1.60000000E+01  1.00800000E+00  1.00800000E+00  1.60000000E+01
  1.00800000E+00  1.00800000E+00  1.60000000E+01  1.00800000E+00  1.00800000E+00
  1.60000000E+01  1.00800000E+00  1.00800000E+00  1.60000000E+01  1.00800000E+00
  1.00800000E+00  1.60000000E+01  1.00800000E+00  1.00800000E+00  1.60000000E+01
  1.00800000E+00  1.00800000E+00  1.60000000E+01  1.00800000E+00  1.00800000E+00
  1.60000000E+01  1.00800000E+00  1.00800000E+00  1.60000000E+01  1.00800000E+00
  1.00800000E+00  1.60000000E+01  1.00800000E+00  1.00800000E+00  1.60000000E+01
  1.00800000E+00  1.00800000E+00  1.60000000E+01  1.00800000E+00  1.00800000E+00
  1.60000000E+01  1.00800000E+00  1.00800000E+00  1.60000000E+01  1.00800000E+00
  1.00800000E+00  1.60000000E+01  1.00800000E+00  1.00800000E+00  1.60000000E+01
  1.00800000E+00  1.00800000E+00  1.60000000E+01  1.00800000E+00  1.00800000E+00
  1.60000000E+01  1.00800000E+00  1.00800000E+00  1.60000000E+01  1.00800000E+00
  1.00800000E+00  1.60000000E+01  1.00800000E+00  1.00800000E+00  1.60000000E+01
  1.00800000E+00  1.00800000E+00  1.60000000E+01  1.00800000E+00  1.00800000E+00
  1.60000000E+01  1.00800000E+00  1.00800000E+00  1.60000000E+01  1.00800000E+00
  1.00800000E+00  1.60000000E+01  1.00800000E+00  1.00800000E+00  1.60000000E+01
  1.00800000E+00  1.00800000E+00  1.60000000E+01  1.00800000E+00  1.00800000E+00
  1.60000000E+01  1.00800000E+00  1.00800000E+00  1.60000000E+01  1.00800000E+00
  1.00800000E+00  1.60000000E+01  1.00800000E+00  1.00800000E+00  1.60000000E+01
  1.00800000E+00  1.00800000E+00  1.60000000E+01  1.00800000E+00  1.00800000E+00
  1.60000000E+01  1.00800000E+00  1.00800000E+00  1.60000000E+01  1.00800000E+00
  1.00800000E+00  1.60000000E+01  1.00800000E+00  1.00800000E+00  1.60000000E+01
  1.00800000E+00  1.00800000E+00  1.60000000E+01  1.00800000E+00  1.00800000E+00
  1.60000000E+01  1.00800000E+00  1.00800000E+00  1.60000000E+01  1.00800000E+00
  1.00800000E+00  1.60000000E+01  1.00800000E+00  1.00800000E+00  1.60000000E+01
  1.00800000E+00  1.00800000E+00  1.60000000E+01  1.00800000E+00  1.00800000E+00
  1.60000000E+01  1.00800000E+00  1.00800000E+00  1.60000000E+01  1.00800000E+00
  1.00800000E+00  1.60000000E+01  1.00800000E+00  1.00800000E+00  1.60000000E+01
  1.00800000E+00  1.00800000E+00  1.60000000E+01  1.00800000E+00  1.00800000E+00
  1.60000000E+01  1.00800000E+00  1.00800000E+00  1.60000000E+01  1.00800000E+00
  1.00800000E+00  1.60000000E+01  1.00800000E+00  1.00800000E+00  1.60000000E+01
  1.00800000E+00  1.00800000E+00  1.60000000E+01  1.00800000E+00  1.00800000E+00
  1.60000000E+01  1.00800000E+00  1.00800000E+00  1.60000000E+01  1.00800000E+00
  1.00800000E+00  1.60000000E+01  1.00800000E+00  1.00800000E+00  1.60000000E+01
  1.00800000E+00  1.00800000E+00  1.60000000E+01  1.00800000E+00  1.00800000E+00
  1.60000000E+01  1.00800000E+00  1.00800000E+00  1.60000000E+01  1.00800000E+00
  1.00800000E+00  1.60000000E+01  1.00800000E+00  1.00800000E+00  1.60000000E+01
  1.00800000E+00  1.00800000E+00  1.60000000E+01  1.00800000E+00  1.00800000E+00
  1.60000000E+01  1.00800000E+00  1.00800000E+00  1.60000000E+01  1.00800000E+00
  1.00800000E+00  1.60000000E+01  1.00800000E+00  1.00800000E+00  1.60000000E+01
  1.00800000E+00  1.00800000E+00  1.60000000E+01  1.00800000E+00  1.00800000E+00
  1.60000000E+01  1.00800000E+00  1.00800000E+00  1.60000000E+01  1.00800000E+00
  1.00800000E+00  1.60000000E+01  1.00800000E+00  1.00800000E+00  1.60000000E+01
  1.00800000E+00  1.00800000E+00  1.60000000E+01  1.00800000E+00  1.00800000E+00
  1.60000000E+01  1.00800000E+00  1.00800000E+00  1.60000000E+01  1.00800000E+00
  1.00800000E+00  1.60000000E+01  1.00800000E+00  1.00800000E+00  1.60000000E+01
  1.00800000E+00  1.00800000E+00  1.60000000E+01  1.00800000E+00  1.00800000E+00
  1.60000000E+01  1.00800000E+00  1.00800000E+00  1.60000000E+01  1.00800000E+00
  1.00800000E+00  1.60000000E+01  1.00800000E+00  1.00800000E+00  1.60000000E+01
  1.00800000E+00  1.00800000E+00  1.60000000E+01  1.00800000E+00  1.00800000E+00
  1.60000000E+01  1.00800000E+00  1.00800000E+00  1.60000000E+01  1.00800000E+00
  1.00800000E+00  1.60000000E+01  1.00800000E+00  1.00800000E+00  1.60000000E+01
  1.00800000E+00  1.00800000E+00  1.60000000E+01  1.00800000E+00  1.00800000E+00
  1.60000000E+01  1.00800000E+00  1.00800000E+00  1.60000000E+01  1.00800000E+00
  1.00800000E+00  1.60000000E+01  1.00800000E+00  1.00800000E+00  1.60000000E+01
  1.00800000E+00  1.00800000E+00  1.60000000E+01  1.00800000E+00  1.00800000E+00
  1.60000000E+01  1.00800000E+00  1.00800000E+00  1.60000000E+01  1.00800000E+00
  1.00800000E+00  1.60000000E+01  1.00800000E+00  1.00800000E+00  1.60000000E+01
  1.00800000E+00  1.00800000E+00  1.60000000E+01  1.00800000E+00  1.00800000E+00
  1.60000000E+01  1.00800000E+00  1.00800000E+00  1.60000000E+01  1.00800000E+00
  1.00800000E+00  1.60000000E+01  1.00800000E+00  1.00800000E+00  1.60000000E+01
  1.00800000E+00  1.00800000E+00  1.60000000E+01  1.00800000E+00  1.00800000E+00
  1.60000000E+01  1.00800000E+00  1.00800000E+00  1.60000000E+01  1.00800000E+00
  1.00800000E+00  1.60000000E+01  1.00800000E+00  1.00800000E+00  1.60000000E+01
  1.00800000E+00  1.00800000E+00  1.60000000E+01  1.00800000E+00  1.00800000E+00
  1.60000000E+01  1.00800000E+00  1.00800000E+00  1.60000000E+01  1.00800000E+00
  1.00800000E+00  1.60000000E+01  1.00800000E+00  1.00800000E+00  1.60000000E+01
  1.00800000E+00  1.00800000E+00  1.60000000E+01  1.00800000E+00  1.00800000E+00
  1.60000000E+01  1.00800000E+00  1.00800000E+00  1.60000000E+01  1.00800000E+00
  1.00800000E+00  1.60000000E+01  1.00800000E+00  1.00800000E+00  1.60000000E+01
  1.00800000E+00  1.00800000E+00  1.60000000E+01  1.00800000E+00  1.00800000E+00
  1.60000000E+01  1.00800000E+00  1.00800000E+00  1.60000000E+01  1.00800000E+00
  1.00800000E+00  1.60000000E+01  1.00800000E+00  1.00800000E+00  1.60000000E+01
  1.00800000E+00  1.00800000E+00  1.60000000E+01  1.00800000E+00  1.00800000E+00
  1.60000000E+01  1.00800000E+00  1.00800000E+00  1.60000000E+01  1.00800000E+00
  1.00800000E+00  1.60000000E+01  1.00800000E+00  1.00800000E+00  1.60000000E+01
  1.00800000E+00  1.00800000E+00  1.60000000E+01  1.00800000E+00  1.00800000E+00
  1.60000000E+01  1.00800000E+00  1.00800000E+00  1.60000000E+01  1.00800000E+00
  1.00800000E+00  1.60000000E+01  1.00800000E+00  1.00800000E+00  1.60000000E+01
  1.00800000E+00  1.00800000E+00  1.60000000E+01  1.00800000E+00  1.00800000E+00
  1.60000000E+01  1.00800000E+00  1.00800000E+00  1.60000000E+01  1.00800000E+00
  1.00800000E+00  1.60000000E+01  1.00800000E+00  1.00800000E+00  1.60000000E+01
  1.00800000E+00  1.00800000E+00  1.60000000E+01  1.00800000E+00  1.00800000E+00
  1.60000000E+01  1.00800000E+00  1.00800000E+00  1.60000000E+01  1.00800000E+00
  1.00800000E+00  1.60000000E+01  1.00800000E+00  1.00800000E+00  1.60000000E+01
  1.00800000E+00  1.00800000E+00  1.60000000E+01  1.00800000E+00  1.00800000E+00
  1.60000000E+01  1.00800000E+00  1.00800000E+00  1.60000000E+01  1.00800000E+00
  1.00800000E+00  1.60000000E+01  1.00800000E+00  1.00800000E+00  1.60000000E+01
  1.00800000E+00  1.00800000E+00  1.60000000E+01  1.00800000E+00  1.00800000E+00
  1.60000000E+01  1.00800000E+00  1.00800000E+00  1.60000000E+01  1.00800000E+00
  1.00800000E+00  1.60000000E+01  1.00800000E+00  1.00800000E+00  1.60000000E+01
  1.00800000E+00  1.00800000E+00  1.60000000E+01  1.00800000E+00  1.00800000E+00
  1.60000000E+01  1.00800000E+00  1.00800000E+00  1.60000000E+01  1.00800000E+00
  1.00800000E+00  1.60000000E+01  1.00800000E+00  1.00800000E+00  1.60000000E+01
  1.00800000E+00  1.00800000E+00  1.60000000E+01  1.00800000E+00  1.00800000E+00
  1.60000000E+01  1.00800000E+00  1.00800000E+00  1.60000000E+01  1.00800000E+00
  1.00800000E+00  1.60000000E+01  1.00800000E+00  1.00800000E+00  1.60000000E+01
  1.00800000E+00  1.00800000E+00  1.60000000E+01  1.00800000E+00  1.00800000E+00
  1.60000000E+01  1.00800000E+00  1.00800000E+00  1.60000000E+01  1.00800000E+00
  1.00800000E+00  1.60000000E+01  1.00800000E+00  1.00800000E+00  1.60000000E+01
  1.00800000E+00  1.00800000E+00  1.60000000E+01  1.00800000E+00  1.00800000E+00
  1.60000000E+01  1.00800000E+00  1.00800000E+00  1.60000000E+01  1.00800000E+00
  1.00800000E+00  1.60000000E+01  1.00800000E+00  1.00800000E+00  1.60000000E+01
  1.00800000E+00  1.00800000E+00  1.60000000E+01  1.00800000E+00  1.00800000E+00
  1.60000000E+01  1.00800000E+00  1.00800000E+00  1.60000000E+01  1.00800000E+00
  1.00800000E+00  1.60000000E+01  1.00800000E+00  1.00800000E+00  1.60000000E+01
  1.00800000E+00  1.00800000E+00  1.60000000E+01  1.00800000E+00  1.00800000E+00
  1.60000000E+01  1.00800000E+00  1.00800000E+00  1.60000000E+01  1.00800000E+00
  1.00800000E+00  1.60000000E+01  1.00800000E+00  1.00800000E+00  1.60000000E+01
  1.00800000E+00  1.00800000E+00  1.60000000E+01  1.00800000E+00  1.00800000E+00
  1.60000000E+01  1.00800000E+00  1.00800000E+00  1.60000000E+01  1.00800000E+00
  1.00800000E+00  1.60000000E+01  1.00800000E+00  1.00800000E+00  1.60000000E+01
  1.00800000E+00  1.00800000E+00  1.60000000E+01  1.00800000E+00  1.00800000E+00
  1.60000000E+01  1.00800000E+00  1.00800000E+00  1.60000000E+01  1.00800000E+00
  1.00800000E+00  1.60000000E+01  1.00800000E+00  1.00800000E+00  1.60000000E+01
  1.00800000E+00  1.00800000E+00  1.60000000E+01  1.00800000E+00  1.00800000E+00
  1.60000000E+01  1.00800000E+00  1.00800000E+00  1.60000000E+01  1.00800000E+00
  1.00800000E+00  1.60000000E+01  1.00800000E+00  1.00800000E+00  1.60000000E+01
  1.00800000E+00  1.00800000E+00  1.60000000E+01  1.00800000E+00  1.00800000E+00
  1.60000000E+01  1.00800000E+00  1.00800000E+00  1.60000000E+01  1.00800000E+00
  1.00800000E+00  1.60000000E+01  1.00800000E+00  1.00800000E+00  1.60000000E+01
  1.00800000E+00  1.00800000E+00  1.60000000E+01  1.00800000E+00  1.00800000E+00
  1.60000000E+01  1.00800000E+00  1.00800000E+00  1.60000000E+01  1.00800000E+00
  1.00800000E+00  1.60000000E+01  1.00800000E+00  1.00800000E+00  1.60000000E+01
  1.00800000E+00  1.00800000E+00  1.60000000E+01  1.00800000E+00  1.00800000E+00
  1.60000000E+01  1.00800000E+00  1.00800000E+00  1.60000000E+01  1.00800000E+00
  1.00800000E+00  1.60000000E+01  1.00800000E+00  1.00800000E+00  1.60000000E+01
  1.00800000E+00  1.00800000E+00  1.60000000E+01  1.00800000E+00  1.00800000E+00
  1.60000000E+01  1.00800000E+00  1.00800000E+00  1.60000000E+01  1.00800000E+00
  1.00800000E+00  1.60000000E+01  1.00800000E+00  1.00800000E+00  1.60000000E+01
  1.00800000E+00  1.00800000E+00  1.60000000E+01  1.00800000E+00  1.00800000E+00
  1.60000000E+01  1.00800000E+00  1.00800000E+00  1.60000000E+01  1.00800000E+00
  1.00800000E+00  1.60000000E+01  1.00800000E+00  1.00800000E+00  1.60000000E+01
  1.00800000E+00  1.00800000E+00  1.60000000E+01  1.00800000E+00  1.00800000E+00
  1.60000000E+01  1.00800000E+00  1.00800000E+00  1.60000000E+01  1.00800000E+00
  1.00800000E+00  1.60000000E+01  1.00800000E+00  1.00800000E+00  1.60000000E+01
  1.00800000E+00  1.00800000E+00  1.60000000E+01  1.00800000E+00  1.00800000E+00
  1.60000000E+01  1.00800000E+00  1.00800000E+00  1.60000000E+01  1.00800000E+00
  1.00800000E+00  1.60000000E+01  1.00800000E+00  1.00800000E+00  1.60000000E+01
  1.00800000E+00  1.00800000E+00  1.60000000E+01  1.00800000E+00  1.00800000E+00
  1.60000000E+01  1.00800000E+00  1.00800000E+00  1.60000000E+01  1.00800000E+00
  1.00800000E+00  1.60000000E+01  1.00800000E+00  1.00800000E+00  1.60000000E+01
  1.00800000E+00  1.00800000E+00  1.60000000E+01  1.00800000E+00  1.00800000E+00
  1.60000000E+01  1.00800000E+00  1.00800000E+00  1.60000000E+01  1.00800000E+00
  1.00800000E+00  1.60000000E+01  1.00800000E+00  1.00800000E+00  1.60000000E+01
  1.00800000E+00  1.00800000E+00  1.60000000E+01  1.00800000E+00  1.00800000E+00
  1.60000000E+01  1.00800000E+00  1.00800000E+00  1.60000000E+01  1.00800000E+00
  1.00800000E+00  1.60000000E+01  1.00800000E+00  1.00800000E+00  1.60000000E+01
  1.00800000E+00  1.00800000E+00  1.60000000E+01  1.00800000E+00  1.00800000E+00
  1.60000000E+01  1.00800000E+00  1.00800000E+00  1.60000000E+01  1.00800000E+00
  1.00800000E+00  1.60000000E+01  1.00800000E+00  1.00800000E+00  1.60000000E+01
  1.00800000E+00  1.00800000E+00  1.60000000E+01  1.00800000E+00  1.00800000E+00
  1.60000000E+01  1.00800000E+00  1.00800000E+00  1.60000000E+01  1.00800000E+00
  1.00800000E+00  1.60000000E+01  1.00800000E+00  1.00800000E+00  1.60000000E+01
  1.00800000E+00  1.00800000E+00  1.60000000E+01  1.00800000E+00  1.00800000E+00
  1.60000000E+01  1.00800000E+00  1.00800000E+00  1.60000000E+01  1.00800000E+00
  1.00800000E+00  1.60000000E+01  1.00800000E+00  1.00800000E+00  1.60000000E+01
  1.00800000E+00  1.00800000E+00  1.60000000E+01  1.00800000E+00  1.00800000E+00
  1.60000000E+01  1.00800000E+00  1.00800000E+00  1.60000000E+01  1.00800000E+00
  1.00800000E+00  1.60000000E+01  1.00800000E+00  1.00800000E+00  1.60000000E+01
  1.00800000E+00  1.00800000E+00  1.60000000E+01  1.00800000E+00  1.00800000E+00
  1.60000000E+01  1.00800000E+00  1.00800000E+00  1.60000000E+01  1.00800000E+00
  1.00800000E+00  1.60000000E+01  1.00800000E+00  1.00800000E+00  1.60000000E+01
  1.00800000E+00  1.00800000E+00  1.60000000E+01  1.00800000E+00  1.00800000E+00
  1.60000000E+01  1.00800000E+00  1.00800000E+00  1.60000000E+01  1.00800000E+00
  1.00800000E+00  1.60000000E+01  1.00800000E+00  1.00800000E+00  1.60000000E+01
  1.00800000E+00  1.00800000E+00  1.60000000E+01  1.00800000E+00  1.00800000E+00
  1.60000000E+01  1.00800000E+00  1.00800000E+00  1.60000000E+01  1.00800000E+00
  1.00800000E+00  1.60000000E+01  1.00800000E+00  1.00800000E+00  1.60000000E+01
  1.00800000E+00  1.00800000E+00  1.60000000E+01  1.00800000E+00  1.00800000E+00
  1.60000000E+01  1.00800000E+00  1.00800000E+00  1.60000000E+01  1.00800000E+00
  1.00800000E+00  1.60000000E+01  1.00800000E+00  1.00800000E+00  1.60000000E+01
  1.00800000E+00  1.00800000E+00  1.60000000E+01  1.00800000E+00  1.00800000E+00
  1.60000000E+01  1.00800000E+00  1.00800000E+00  1.60000000E+01  1.00800000E+00
  1.00800000E+00  1.60000000E+01  1.00800000E+00  1.00800000E+00  1.60000000E+01
  1.00800000E+00  1.00800000E+00  1.60000000E+01  1.00800000E+00  1.00800000E+00
  1.60000000E+01  1.00800000E+00  1.00800000E+00  1.60000000E+01  1.00800000E+00
  1.00800000E+00  1.60000000E+01  1.00800000E+00  1.00800000E+00  1.60000000E+01
  1.00800000E+00  1.00800000E+00  1.60000000E+01  1.00800000E+00  1.00800000E+00
  1.60000000E+01  1.00800000E+00  1.00800000E+00  1.60000000E+01  1.00800000E+00
  1.00800000E+00  1.60000000E+01  1.00800000E+00  1.00800000E+00  1.60000000E+01
  1.00800000E+00  1.00800000E+00  1.60000000E+01  1.00800000E+00  1.00800000E+00
  1.60000000E+01  1.00800000E+00  1.00800000E+00  1.60000000E+01  1.00800000E+00
  1.00800000E+00  1.60000000E+01  1.00800000E+00  1.00800000E+00  1.60000000E+01
  1.00800000E+00  1.00800000E+00  1.60000000E+01  1.00800000E+00  1.00800000E+00
  1.60000000E+01  1.00800000E+00  1.00800000E+00  1.60000000E+01  1.00800000E+00
  1.00800000E+00  1.60000000E+01  1.00800000E+00  1.00800000E+00  1.60000000E+01
  1.00800000E+00  1.00800000E+00  1.60000000E+01  1.00800000E+00  1.00800000E+00
  1.60000000E+01  1.00800000E+00  1.00800000E+00  1.60000000E+01  1.00800000E+00
  1.00800000E+00  1.60000000E+01  1.00800000E+00  1.00800000E+00  1.60000000E+01
  1.00800000E+00  1.00800000E+00  1.60000000E+01  1.00800000E+00  1.00800000E+00
  1.60000000E+01  1.00800000E+00  1.00800000E+00  1.60000000E+01  1.00800000E+00
  1.00800000E+00  1.60000000E+01  1.00800000E+00  1.00800000E+00  1.60000000E+01
  1.00800000E+00  1.00800000E+00  1.60000000E+01  1.00800000E+00  1.00800000E+00
  1.60000000E+01  1.00800000E+00  1.00800000E+00  1.60000000E+01  1.00800000E+00
  1.00800000E+00  1.60000000E+01  1.00800000E+00  1.00800000E+00  1.60000000E+01
  1.00800000E+00  1.00800000E+00  1.60000000E+01  1.00800000E+00  1.00800000E+00
  1.60000000E+01  1.00800000E+00  1.00800000E+00  1.60000000E+01  1.00800000E+00
  1.00800000E+00  1.60000000E+01  1.00800000E+00  1.00800000E+00  1.60000000E+01
  1.00800000E+00  1.00800000E+00  1.60000000E+01  1.00800000E+00  1.00800000E+00
  1.60000000E+01  1.00800000E+00  1.00800000E+00  1.60000000E+01  1.00800000E+00
  1.00800000E+00  1.60000000E+01  1.00800000E+00  1.00800000E+00  1.60000000E+01
  1.00800000E+00  1.00800000E+00  1.60000000E+01  1.00800000E+00  1.00800000E+00
  1.60000000E+01  1.00800000E+00  1.00800000E+00  1.60000000E+01  1.00800000E+00
  1.00800000E+00  1.60000000E+01  1.00800000E+00  1.00800000E+00  1.60000000E+01
  1.00800000E+00  1.00800000E+00  1.60000000E+01  1.00800000E+00  1.00800000E+00
  1.60000000E+01  1.00800000E+00  1.00800000E+00  1.60000000E+01  1.00800000E+00
  1.00800000E+00  1.60000000E+01  1.00800000E+00  1.00800000E+00  1.60000000E+01
  1.00800000E+00  1.00800000E+00  1.60000000E+01  1.00800000E+00  1.00800000E+00
  1.60000000E+01  1.00800000E+00  1.00800000E+00  1.60000000E+01  1.00800000E+00
  1.00800000E+00  1.60000000E+01  1.00800000E+00  1.00800000E+00  1.60000000E+01
  1.00800000E+00  1.00800000E+00  1.60000000E+01  1.00800000E+00  1.00800000E+00
  1.60000000E+01  1.00800000E+00  1.00800000E+00  1.60000000E+01  1.00800000E+00
  1.00800000E+00  1.60000000E+01  1.00800000E+00  1.00800000E+00  1.60000000E+01
  1.00800000E+00  1.00800000E+00  1.60000000E+01  1.00800000E+00  1.00800000E+00
  1.60000000E+01  1.00800000E+00  1.00800000E+00  1.60000000E+01  1.00800000E+00
  1.00800000E+00  1.60000000E+01  1.00800000E+00  1.00800000E+00  1.60000000E+01
  1.00800000E+00  1.00800000E+00  1.60000000E+01  1.00800000E+00  1.00800000E+00
  1.60000000E+01  1.00800000E+00  1.00800000E+00  1.60000000E+01  1.00800000E+00
  1.00800000E+00  1.60000000E+01  1.00800000E+00  1.00800000E+00  1.60000000E+01
  1.00800000E+00  1.00800000E+00  1.60000000E+01  1.00800000E+00  1.00800000E+00
  1.60000000E+01  1.00800000E+00  1.00800000E+00  1.60000000E+01  1.00800000E+00
  1.00800000E+00  1.60000000E+01  1.00800000E+00  1.00800000E+00  1.60000000E+01
  1.00800000E+00  1.00800000E+00  1.60000000E+01  1.00800000E+00  1.00800000E+00
  1.60000000E+01  1.00800000E+00  1.00800000E+00  1.60000000E+01  1.00800000E+00
  1.00800000E+00  1.60000000E+01  1.00800000E+00  1.00800000E+00  1.60000000E+01
  1.00800000E+00  1.00800000E+00  1.60000000E+01  1.00800000E+00  1.00800000E+00
  1.60000000E+01  1.00800000E+00  1.00800000E+00  1.60000000E+01  1.00800000E+00
  1.00800000E+00  1.60000000E+01  1.00800000E+00  1.00800000E+00  1.60000000E+01
  1.00800000E+00  1.00800000E+00  1.60000000E+01  1.00800000E+00  1.00800000E+00
  1.60000000E+01  1.00800000E+00  1.00800000E+00  1.60000000E+01  1.00800000E+00
  1.00800000E+00  1.60000000E+01  1.00800000E+00  1.00800000E+00  1.60000000E+01
  1.00800000E+00  1.00800000E+00  1.60000000E+01  1.00800000E+00  1.00800000E+00
  1.60000000E+01  1.00800000E+00  1.00800000E+00  1.60000000E+01  1.00800000E+00
  1.00800000E+00  1.60000000E+01  1.00800000E+00  1.00800000E+00  1.60000000E+01
  1.00800000E+00  1.00800000E+00  1.60000000E+01  1.00800000E+00  1.00800000E+00
  1.60000000E+01  1.00800000E+00  1.00800000E+00  1.60000000E+01  1.00800000E+00
  1.00800000E+00  1.60000000E+01  1.00800000E+00  1.00800000E+00  1.60000000E+01
  1.00800000E+00  1.00800000E+00  1.60000000E+01  1.00800000E+00  1.00800000E+00
  1.60000000E+01  1.00800000E+00  1.00800000E+00  1.60000000E+01  1.00800000E+00
  1.00800000E+00  1.60000000E+01  1.00800000E+00  1.00800000E+00  1.60000000E+01
  1.00800000E+00  1.00800000E+00  1.60000000E+01  1.00800000E+00  1.00800000E+00
  1.60000000E+01  1.00800000E+00  1.00800000E+00  1.60000000E+01  1.00800000E+00
  1.00800000E+00  1.60000000E+01  1.00800000E+00  1.00800000E+00  1.60000000E+01
  1.00800000E+00  1.00800000E+00  1.60000000E+01  1.00800000E+00  1.00800000E+00
  1.60000000E+01  1.00800000E+00  1.00800000E+00  1.60000000E+01  1.00800000E+00
  1.00800000E+00  1.60000000E+01  1.00800000E+00  1.00800000E+00  1.60000000E+01
  1.00800000E+00  1.00800000E+00  1.60000000E+01  1.00800000E+00  1.00800000E+00
  1.60000000E+01  1.00800000E+00  1.00800000E+00  1.60000000E+01  1.00800000E+00
  1.00800000E+00  1.60000000E+01  1.00800000E+00  1.00800000E+00  1.60000000E+01
  1.00800000E+00  1.00800000E+00  1.60000000E+01  1.00800000E+00  1.00800000E+00
  1.60000000E+01  1.00800000E+00  1.00800000E+00  1.60000000E+01  1.00800000E+00
  1.00800000E+00  1.60000000E+01  1.00800000E+00  1.00800000E+00  1.60000000E+01
  1.00800000E+00  1.00800000E+00  1.60000000E+01  1.00800000E+00  1.00800000E+00
  1.60000000E+01  1.00800000E+00  1.00800000E+00  1.60000000E+01  1.00800000E+00
  1.00800000E+00  1.60000000E+01  1.00800000E+00  1.00800000E+00  1.60000000E+01
  1.00800000E+00  1.00800000E+00  1.60000000E+01  1.00800000E+00  1.00800000E+00
  1.60000000E+01  1.00800000E+00  1.00800000E+00  1.60000000E+01  1.00800000E+00
  1.00800000E+00  1.60000000E+01  1.00800000E+00  1.00800000E+00  1.60000000E+01
  1.00800000E+00  1.00800000E+00  1.60000000E+01  1.00800000E+00  1.00800000E+00
  1.60000000E+01  1.00800000E+00  1.00800000E+00  1.60000000E+01  1.00800000E+00
  1.00800000E+00  1.60000000E+01  1.00800000E+00  1.00800000E+00  1.60000000E+01
  1.00800000E+00  1.00800000E+00  1.60000000E+01  1.00800000E+00  1.00800000E+00
  1.60000000E+01  1.00800000E+00  1.00800000E+00  1.60000000E+01  1.00800000E+00
  1.00800000E+00  1.60000000E+01  1.00800000E+00  1.00800000E+00  1.60000000E+01
  1.00800000E+00  1.00800000E+00  1.60000000E+01  1.00800000E+00  1.00800000E+00
  1.60000000E+01  1.00800000E+00  1.00800000E+00  1.60000000E+01  1.00800000E+00
  1.00800000E+00  1.60000000E+01  1.00800000E+00  1.00800000E+00  1.60000000E+01
  1.00800000E+00  1.00800000E+00  1.60000000E+01  1.00800000E+00  1.00800000E+00
  1.60000000E+01  1.00800000E+00  1.00800000E+00  1.60000000E+01  1.00800000E+00
  1.00800000E+00  1.60000000E+01  1.00800000E+00  1.00800000E+00  1.60000000E+01
  1.00800000E+00  1.00800000E+00  1.60000000E+01  1.00800000E+00  1.00800000E+00
  1.60000000E+01  1.00800000E+00  1.00800000E+00  1.60000000E+01  1.00800000E+00
  1.00800000E+00  1.60000000E+01  1.00800000E+00  1.00800000E+00  1.60000000E+01
  1.00800000E+00  1.00800000E+00  1.60000000E+01  1.00800000E+00  1.00800000E+00
  1.60000000E+01  1.00800000E+00  1.00800000E+00  1.60000000E+01  1.00800000E+00
  1.00800000E+00  1.60000000E+01  1.00800000E+00  1.00800000E+00  1.60000000E+01
  1.00800000E+00  1.00800000E+00  1.60000000E+01  1.00800000E+00  1.00800000E+00
  1.60000000E+01  1.00800000E+00  1.00800000E+00  1.60000000E+01  1.00800000E+00
  1.00800000E+00  1.60000000E+01  1.00800000E+00  1.00800000E+00  1.60000000E+01
  1.00800000E+00  1.00800000E+00  1.60000000E+01  1.00800000E+00  1.00800000E+00
  1.60000000E+01  1.00800000E+00  1.00800000E+00  1.60000000E+01  1.00800000E+00
  1.00800000E+00  1.60000000E+01  1.00800000E+00  1.00800000E+00  1.60000000E+01
  1.00800000E+00  1.00800000E+00  1.60000000E+01  1.00800000E+00  1.00800000E+00
  1.60000000E+01  1.00800000E+00  1.00800000E+00  1.60000000E+01  1.00800000E+00
  1.00800000E+00  1.60000000E+01  1.00800000E+00  1.00800000E+00  1.60000000E+01
  1.00800000E+00  1.00800000E+00  1.60000000E+01  1.00800000E+00  1.00800000E+00
  1.60000000E+01  1.00800000E+00  1.00800000E+00  1.60000000E+01  1.00800000E+00
  1.00800000E+00  1.60000000E+01  1.00800000E+00  1.00800000E+00  1.60000000E+01
  1.00800000E+00  1.00800000E+00  1.60000000E+01  1.00800000E+00  1.00800000E+00
  1.60000000E+01  1.00800000E+00  1.00800000E+00  1.60000000E+01  1.00800000E+00
  1.00800000E+00  1.60000000E+01  1.00800000E+00  1.00800000E+00  1.60000000E+01
  1.00800000E+00  1.00800000E+00  1.60000000E+01  1.00800000E+00  1.00800000E+00
  1.60000000E+01  1.00800000E+00  1.00800000E+00  1.60000000E+01  1.00800000E+00
  1.00800000E+00  1.60000000E+01  1.00800000E+00  1.00800000E+00  1.60000000E+01
  1.00800000E+00  1.00800000E+00  1.60000000E+01  1.00800000E+00  1.00800000E+00
  1.60000000E+01  1.00800000E+00  1.00800000E+00  1.60000000E+01  1.00800000E+00
  1.00800000E+00  1.60000000E+01  1.00800000E+00  1.00800000E+00  1.60000000E+01
  1.00800000E+00  1.00800000E+00  1.60000000E+01  1.00800000E+00  1.00800000E+00
  1.60000000E+01  1.00800000E+00  1.00800000E+00  1.60000000E+01  1.00800000E+00
  1.00800000E+00  1.60000000E+01  1.00800000E+00  1.00800000E+00  1.60000000E+01
  1.00800000E+00  1.00800000E+00  1.60000000E+01  1.00800000E+00  1.00800000E+00
  1.60000000E+01  1.00800000E+00  1.00800000E+00  1.60000000E+01  1.00800000E+00
  1.00800000E+00  1.60000000E+01  1.00800000E+00  1.00800000E+00  1.60000000E+01
  1.00800000E+00  1.00800000E+00  1.60000000E+01  1.00800000E+00  1.00800000E+00
  1.60000000E+01  1.00800000E+00  1.00800000E+00  1.60000000E+01  1.00800000E+00
  1.00800000E+00  1.60000000E+01  1.00800000E+00  1.00800000E+00  1.60000000E+01
  1.00800000E+00  1.00800000E+00  1.60000000E+01  1.00800000E+00  1.00800000E+00
  1.60000000E+01  1.00800000E+00  1.00800000E+00  1.60000000E+01  1.00800000E+00
  1.00800000E+00  1.60000000E+01  1.00800000E+00  1.00800000E+00  1.60000000E+01
  1.00800000E+00  1.00800000E+00  1.60000000E+01  1.00800000E+00  1.00800000E+00
  1.60000000E+01  1.00800000E+00  1.00800000E+00  1.60000000E+01  1.00800000E+00
  1.00800000E+00  1.60000000E+01  1.00800000E+00  1.00800000E+00  1.60000000E+01
  1.00800000E+00  1.00800000E+00  1.60000000E+01  1.00800000E+00  1.00800000E+00
  1.60000000E+01  1.00800000E+00  1.00800000E+00  1.60000000E+01  1.00800000E+00
  1.00800000E+00  1.60000000E+01  1.00800000E+00  1.00800000E+00  1.60000000E+01
  1.00800000E+00  1.00800000E+00  1.60000000E+01  1.00800000E+00  1.00800000E+00
  1.60000000E+01  1.00800000E+00  1.00800000E+00  1.60000000E+01  1.00800000E+00
  1.00800000E+00  1.60000000E+01  1.00800000E+00  1.00800000E+00  1.60000000E+01
  1.00800000E+00  1.00800000E+00  1.60000000E+01  1.00800000E+00  1.00800000E+00
  1.60000000E+01  1.00800000E+00  1.00800000E+00  1.60000000E+01  1.00800000E+00
  1.00800000E+00  1.60000000E+01  1.00800000E+00  1.00800000E+00  1.60000000E+01
  1.00800000E+00  1.00800000E+00  1.60000000E+01  1.00800000E+00  1.00800000E+00
  1.60000000E+01  1.00800000E+00  1.00800000E+00  1.60000000E+01  1.00800000E+00
  1.00800000E+00  1.60000000E+01  1.00800000E+00  1.00800000E+00  1.60000000E+01
  1.00800000E+00  1.00800000E+00  1.60000000E+01  1.00800000E+00  1.00800000E+00
  1.60000000E+01  1.00800000E+00  1.00800000E+00  1.60000000E+01  1.00800000E+00
  1.00800000E+00  1.60000000E+01  1.00800000E+00  1.00800000E+00  1.60000000E+01
  1.00800000E+00  1.00800000E+00  1.60000000E+01  1.00800000E+00  1.00800000E+00
  1.60000000E+01  1.00800000E+00  1.00800000E+00  1.60000000E+01  1.00800000E+00
  1.00800000E+00  1.60000000E+01  1.00800000E+00  1.00800000E+00  1.60000000E+01
  1.00800000E+00  1.00800000E+00  1.60000000E+01  1.00800000E+00  1.00800000E+00
  1.60000000E+01  1.00800000E+00  1.00800000E+00  1.60000000E+01  1.00800000E+00
  1.00800000E+00  1.60000000E+01  1.00800000E+00  1.00800000E+00  1.60000000E+01
  1.00800000E+00  1.00800000E+00  1.60000000E+01  1.00800000E+00  1.00800000E+00
  1.60000000E+01  1.00800000E+00  1.00800000E+00  1.60000000E+01  1.00800000E+00
  1.00800000E+00  1.60000000E+01  1.00800000E+00  1.00800000E+00  1.60000000E+01
  1.00800000E+00  1.00800000E+00  1.60000000E+01  1.00800000E+00  1.00800000E+00
  1.60000000E+01  1.00800000E+00  1.00800000E+00  1.60000000E+01  1.00800000E+00
  1.00800000E+00  1.60000000E+01  1.00800000E+00  1.00800000E+00  1.60000000E+01
  1.00800000E+00  1.00800000E+00  1.60000000E+01  1.00800000E+00  1.00800000E+00
  1.60000000E+01  1.00800000E+00  1.00800000E+00  1.60000000E+01  1.00800000E+00
  1.00800000E+00  1.60000000E+01  1.00800000E+00  1.00800000E+00  1.60000000E+01
  1.00800000E+00  1.00800000E+00  1.60000000E+01  1.00800000E+00  1.00800000E+00
  1.60000000E+01  1.00800000E+00  1.00800000E+00  1.60000000E+01  1.00800000E+00
  1.00800000E+00  1.60000000E+01  1.00800000E+00  1.00800000E+00  1.60000000E+01
  1.00800000E+00  1.00800000E+00  1.60000000E+01  1.00800000E+00  1.00800000E+00
  1.60000000E+01  1.00800000E+00  1.00800000E+00  1.60000000E+01  1.00800000E+00
  1.00800000E+00  1.60000000E+01  1.00800000E+00  1.00800000E+00  1.60000000E+01
  1.00800000E+00  1.00800000E+00  1.60000000E+01  1.00800000E+00  1.00800000E+00
  1.60000000E+01  1.00800000E+00  1.00800000E+00  1.60000000E+01  1.00800000E+00
  1.00800000E+00  1.60000000E+01  1.00800000E+00  1.00800000E+00  1.60000000E+01
  1.00800000E+00  1.00800000E+00  1.60000000E+01  1.00800000E+00  1.00800000E+00
  1.60000000E+01  1.00800000E+00  1.00800000E+00  1.60000000E+01  1.00800000E+00
  1.00800000E+00  1.60000000E+01  1.00800000E+00  1.00800000E+00  1.60000000E+01
  1.00800000E+00  1.00800000E+00  1.60000000E+01  1.00800000E+00  1.00800000E+00
  1.60000000E+01  1.00800000E+00  1.00800000E+00  1.60000000E+01  1.00800000E+00
  1.00800000E+00  1.60000000E+01  1.00800000E+00  1.00800000E+00  1.60000000E+01
  1.00800000E+00  1.00800000E+00  1.60000000E+01  1.00800000E+00  1.00800000E+00
  1.60000000E+01  1.00800000E+00  1.00800000E+00  1.60000000E+01  1.00800000E+00
  1.00800000E+00  1.60000000E+01  1.00800000E+00  1.00800000E+00  1.60000000E+01
  1.00800000E+00  1.00800000E+00  1.60000000E+01  1.00800000E+00  1.00800000E+00
  1.60000000E+01  1.00800000E+00  1.00800000E+00  1.60000000E+01  1.00800000E+00
  1.00800000E+00  1.60000000E+01  1.00800000E+00  1.00800000E+00  1.60000000E+01
  1.00800000E+00  1.00800000E+00  1.60000000E+01  1.00800000E+00  1.00800000E+00
  1.60000000E+01  1.00800000E+00  1.00800000E+00  1.60000000E+01  1.00800000E+00
  1.00800000E+00  1.60000000E+01  1.00800000E+00  1.00800000E+00  1.60000000E+01
  1.00800000E+00  1.00800000E+00  1.60000000E+01  1.00800000E+00  1.00800000E+00
  1.60000000E+01  1.00800000E+00  1.00800000E+00  1.60000000E+01  1.00800000E+00
  1.00800000E+00  1.60000000E+01  1.00800000E+00  1.00800000E+00  1.60000000E+01
  1.00800000E+00  1.00800000E+00  1.60000000E+01  1.00800000E+00  1.00800000E+00
  1.60000000E+01  1.00800000E+00  1.00800000E+00  1.60000000E+01  1.00800000E+00
  1.00800000E+00  1.60000000E+01  1.00800000E+00  1.00800000E+00  1.60000000E+01
  1.00800000E+00  1.00800000E+00  1.60000000E+01  1.00800000E+00  1.00800000E+00
  1.60000000E+01  1.00800000E+00  1.00800000E+00  1.60000000E+01  1.00800000E+00
  1.00800000E+00  1.60000000E+01  1.00800000E+00  1.00800000E+00  1.60000000E+01
  1.00800000E+00  1.00800000E+00  1.60000000E+01  1.00800000E+00  1.00800000E+00
  1.60000000E+01  1.00800000E+00  1.00800000E+00  1.60000000E+01  1.00800000E+00
  1.00800000E+00  1.60000000E+01  1.00800000E+00  1.00800000E+00  1.60000000E+01
  1.00800000E+00  1.00800000E+00  1.60000000E+01  1.00800000E+00  1.00800000E+00
  1.60000000E+01  1.00800000E+00  1.00800000E+00  1.60000000E+01  1.00800000E+00
  1.00800000E+00  1.60000000E+01  1.00800000E+00  1.00800000E+00  1.60000000E+01
  1.00800000E+00  1.00800000E+00  1.60000000E+01  1.00800000E+00  1.00800000E+00
  1.60000000E+01  1.00800000E+00  1.00800000E+00  1.60000000E+01  1.00800000E+00
  1.00800000E+00  1.60000000E+01  1.00800000E+00  1.00800000E+00  1.60000000E+01
  1.00800000E+00  1.00800000E+00  1.60000000E+01  1.00800000E+00  1.00800000E+00
  1.60000000E+01  1.00800000E+00  1.00800000E+00  1.60000000E+01  1.00800000E+00
  1.00800000E+00  1.60000000E+01  1.00800000E+00  1.00800000E+00  1.60000000E+01
  1.00800000E+00  1.00800000E+00  1.60000000E+01  1.00800000E+00  1.00800000E+00
  1.60000000E+01  1.00800000E+00  1.00800000E+00  1.60000000E+01  1.00800000E+00
  1.00800000E+00  1.60000000E+01  1.00800000E+00  1.00800000E+00  1.60000000E+01
  1.00800000E+00  1.00800000E+00  1.60000000E+01  1.00800000E+00  1.00800000E+00
  1.60000000E+01  1.00800000E+00  1.00800000E+00  1.60000000E+01  1.00800000E+00
  1.00800000E+00  1.60000000E+01  1.00800000E+00  1.00800000E+00  1.60000000E+01
  1.00800000E+00  1.00800000E+00  1.60000000E+01  1.00800000E+00  1.00800000E+00
  1.60000000E+01  1.00800000E+00  1.00800000E+00  1.60000000E+01  1.00800000E+00
  1.00800000E+00  1.60000000E+01  1.00800000E+00  1.00800000E+00  1.60000000E+01
  1.00800000E+00  1.00800000E+00  1.60000000E+01  1.00800000E+00  1.00800000E+00
  1.60000000E+01  1.00800000E+00  1.00800000E+00  1.60000000E+01  1.00800000E+00
  1.00800000E+00  1.60000000E+01  1.00800000E+00  1.00800000E+00  1.60000000E+01
  1.00800000E+00  1.00800000E+00  1.60000000E+01  1.00800000E+00  1.00800000E+00
  1.60000000E+01  1.00800000E+00  1.00800000E+00  1.60000000E+01  1.00800000E+00
  1.00800000E+00  1.60000000E+01  1.00800000E+00  1.00800000E+00  1.60000000E+01
  1.00800000E+00  1.00800000E+00  1.60000000E+01  1.00800000E+00  1.00800000E+00
  1.60000000E+01  1.00800000E+00  1.00800000E+00  1.60000000E+01  1.00800000E+00
  1.00800000E+00  1.60000000E+01  1.00800000E+00  1.00800000E+00  1.60000000E+01
  1.00800000E+00  1.00800000E+00  1.60000000E+01  1.00800000E+00  1.00800000E+00
  1.60000000E+01  1.00800000E+00  1.00800000E+00  1.60000000E+01  1.00800000E+00
  1.00800000E+00  1.60000000E+01  1.00800000E+00  1.00800000E+00  1.60000000E+01
  1.00800000E+00  1.00800000E+00  1.60000000E+01  1.00800000E+00  1.00800000E+00
  1.60000000E+01  1.00800000E+00  1.00800000E+00  1.60000000E+01  1.00800000E+00
  1.00800000E+00  1.60000000E+01  1.00800000E+00  1.00800000E+00  1.60000000E+01
  1.00800000E+00  1.00800000E+00  1.60000000E+01  1.00800000E+00  1.00800000E+00
  1.60000000E+01  1.00800000E+00  1.00800000E+00  1.60000000E+01  1.00800000E+00
  1.00800000E+00  1.60000000E+01  1.00800000E+00  1.00800000E+00  1.60000000E+01
  1.00800000E+00  1.00800000E+00  1.60000000E+01  1.00800000E+00  1.00800000E+00
  1.60000000E+01  1.00800000E+00  1.00800000E+00  1.60000000E+01  1.00800000E+00
  1.00800000E+00  1.60000000E+01  1.00800000E+00  1.00800000E+00  1.60000000E+01
  1.00800000E+00  1.00800000E+00  1.60000000E+01  1.00800000E+00  1.00800000E+00
  1.60000000E+01  1.00800000E+00  1.00800000E+00  1.60000000E+01  1.00800000E+00
  1.00800000E+00  1.60000000E+01  1.00800000E+00  1.00800000E+00  1.60000000E+01
  1.00800000E+00  1.00800000E+00  1.60000000E+01  1.00800000E+00  1.00800000E+00
  1.60000000E+01  1.00800000E+00  1.00800000E+00  1.60000000E+01  1.00800000E+00
  1.00800000E+00  1.60000000E+01  1.00800000E+00  1.00800000E+00  1.60000000E+01
  1.00800000E+00  1.00800000E+00  1.60000000E+01  1.00800000E+00  1.00800000E+00
  1.60000000E+01  1.00800000E+00  1.00800000E+00  1.60000000E+01  1.00800000E+00
  1.00800000E+00  1.60000000E+01  1.00800000E+00  1.00800000E+00  1.60000000E+01
  1.00800000E+00  1.00800000E+00  1.60000000E+01  1.00800000E+00  1.00800000E+00
  1.60000000E+01  1.00800000E+00  1.00800000E+00  1.60000000E+01  1.00800000E+00
  1.00800000E+00  1.60000000E+01  1.00800000E+00  1.00800000E+00  1.60000000E+01
  1.00800000E+00  1.00800000E+00  1.60000000E+01  1.00800000E+00  1.00800000E+00
  1.60000000E+01  1.00800000E+00  1.00800000E+00  1.60000000E+01  1.00800000E+00
  1.00800000E+00  1.60000000E+01  1.00800000E+00  1.00800000E+00  1.60000000E+01
  1.00800000E+00  1.00800000E+00  1.60000000E+01  1.00800000E+00  1.00800000E+00
  1.60000000E+01  1.00800000E+00  1.00800000E+00  1.60000000E+01  1.00800000E+00
  1.00800000E+00  1.60000000E+01  1.00800000E+00  1.00800000E+00  1.60000000E+01
  1.00800000E+00  1.00800000E+00  1.60000000E+01  1.00800000E+00  1.00800000E+00
  1.60000000E+01  1.00800000E+00  1.00800000E+00  1.60000000E+01  1.00800000E+00
  1.00800000E+00  1.60000000E+01  1.00800000E+00  1.00800000E+00  1.60000000E+01
  1.00800000E+00  1.00800000E+00  1.60000000E+01  1.00800000E+00  1.00800000E+00
  1.60000000E+01  1.00800000E+00  1.00800000E+00  1.60000000E+01  1.00800000E+00
  1.00800000E+00  1.60000000E+01  1.00800000E+00  1.00800000E+00  1.60000000E+01
  1.00800000E+00  1.00800000E+00  1.60000000E+01  1.00800000E+00  1.00800000E+00
  1.60000000E+01  1.00800000E+00  1.00800000E+00  1.60000000E+01  1.00800000E+00
  1.00800000E+00  1.60000000E+01  1.00800000E+00  1.00800000E+00  1.60000000E+01
  1.00800000E+00  1.00800000E+00  1.60000000E+01  1.00800000E+00  1.00800000E+00
  1.60000000E+01  1.00800000E+00  1.00800000E+00  1.60000000E+01  1.00800000E+00
  1.00800000E+00  1.60000000E+01  1.00800000E+00  1.00800000E+00  1.60000000E+01
  1.00800000E+00  1.00800000E+00  1.60000000E+01  1.00800000E+00  1.00800000E+00
  1.60000000E+01  1.00800000E+00  1.00800000E+00  1.60000000E+01  1.00800000E+00
  1.00800000E+00  1.60000000E+01  1.00800000E+00  1.00800000E+00  1.60000000E+01
  1.00800000E+00  1.00800000E+00  1.60000000E+01  1.00800000E+00  1.00800000E+00
  1.60000000E+01  1.00800000E+00  1.00800000E+00  1.60000000E+01  1.00800000E+00
  1.00800000E+00  1.60000000E+01  1.00800000E+00  1.00800000E+00  1.60000000E+01
  1.00800000E+00  1.00800000E+00  1.60000000E+01  1.00800000E+00  1.00800000E+00
  1.60000000E+01  1.00800000E+00  1.00800000E+00  1.60000000E+01  1.00800000E+00
  1.00800000E+00  1.60000000E+01  1.00800000E+00  1.00800000E+00  1.60000000E+01
  1.00800000E+00  1.00800000E+00  1.60000000E+01  1.00800000E+00  1.00800000E+00
  1.60000000E+01  1.00800000E+00  1.00800000E+00  1.60000000E+01  1.00800000E+00
  1.00800000E+00  1.60000000E+01  1.00800000E+00  1.00800000E+00  1.60000000E+01
  1.00800000E+00  1.00800000E+00  1.60000000E+01  1.00800000E+00  1.00800000E+00
  1.60000000E+01  1.00800000E+00  1.00800000E+00  1.60000000E+01  1.00800000E+00
  1.00800000E+00  1.60000000E+01  1.00800000E+00  1.00800000E+00  1.60000000E+01
  1.00800000E+00  1.00800000E+00  1.60000000E+01  1.00800000E+00  1.00800000E+00
  1.60000000E+01  1.00800000E+00  1.00800000E+00  1.60000000E+01  1.00800000E+00
  1.00800000E+00  1.60000000E+01  1.00800000E+00  1.00800000E+00  1.60000000E+01
  1.00800000E+00  1.00800000E+00  1.60000000E+01  1.00800000E+00  1.00800000E+00
  1.60000000E+01  1.00800000E+00  1.00800000E+00  1.60000000E+01  1.00800000E+00
  1.00800000E+00  1.60000000E+01  1.00800000E+00  1.00800000E+00  1.60000000E+01
  1.00800000E+00  1.00800000E+00  1.60000000E+01  1.00800000E+00  1.00800000E+00
  1.60000000E+01  1.00800000E+00  1.00800000E+00  1.60000000E+01  1.00800000E+00
  1.00800000E+00  1.60000000E+01  1.00800000E+00  1.00800000E+00  1.60000000E+01
  1.00800000E+00  1.00800000E+00  1.60000000E+01  1.00800000E+00  1.00800000E+00
  1.60000000E+01  1.00800000E+00  1.00800000E+00  1.60000000E+01  1.00800000E+00
  1.00800000E+00  1.60000000E+01  1.00800000E+00  1.00800000E+00  1.60000000E+01
  1.00800000E+00  1.00800000E+00  1.60000000E+01  1.00800000E+00  1.00800000E+00
  1.60000000E+01  1.00800000E+00  1.00800000E+00  1.60000000E+01  1.00800000E+00
  1.00800000E+00  1.60000000E+01  1.00800000E+00  1.00800000E+00  1.60000000E+01
  1.00800000E+00  1.00800000E+00  1.60000000E+01  1.00800000E+00  1.00800000E+00
  1.60000000E+01  1.00800000E+00  1.00800000E+00  1.60000000E+01  1.00800000E+00
  1.00800000E+00  1.60000000E+01  1.00800000E+00  1.00800000E+00  1.60000000E+01
  1.00800000E+00  1.00800000E+00  1.60000000E+01  1.00800000E+00  1.00800000E+00
  1.60000000E+01  1.00800000E+00  1.00800000E+00  1.60000000E+01  1.00800000E+00
  1.00800000E+00  1.60000000E+01  1.00800000E+00  1.00800000E+00  1.60000000E+01
  1.00800000E+00  1.00800000E+00  1.60000000E+01  1.00800000E+00  1.00800000E+00
  1.60000000E+01  1.00800000E+00  1.00800000E+00  1.60000000E+01  1.00800000E+00
  1.00800000E+00  1.60000000E+01  1.00800000E+00  1.00800000E+00  1.60000000E+01
  1.00800000E+00  1.00800000E+00  1.60000000E+01  1.00800000E+00  1.00800000E+00
  1.60000000E+01  1.00800000E+00  1.00800000E+00  1.60000000E+01  1.00800000E+00
  1.00800000E+00  1.60000000E+01  1.00800000E+00  1.00800000E+00  1.60000000E+01
  1.00800000E+00  1.00800000E+00  1.60000000E+01  1.00800000E+00  1.00800000E+00
  1.60000000E+01  1.00800000E+00  1.00800000E+00  1.60000000E+01  1.00800000E+00
  1.00800000E+00  1.60000000E+01  1.00800000E+00  1.00800000E+00  1.60000000E+01
  1.00800000E+00  1.00800000E+00  1.60000000E+01  1.00800000E+00  1.00800000E+00
  1.60000000E+01  1.00800000E+00  1.00800000E+00  1.60000000E+01  1.00800000E+00
  1.00800000E+00  1.60000000E+01  1.00800000E+00  1.00800000E+00  1.60000000E+01
  1.00800000E+00  1.00800000E+00  1.60000000E+01  1.00800000E+00  1.00800000E+00
  1.60000000E+01  1.00800000E+00  1.00800000E+00  1.60000000E+01  1.00800000E+00
  1.00800000E+00  1.60000000E+01  1.00800000E+00  1.00800000E+00  1.60000000E+01
  1.00800000E+00  1.00800000E+00  1.60000000E+01  1.00800000E+00  1.00800000E+00
  1.60000000E+01  1.00800000E+00  1.00800000E+00  1.60000000E+01  1.00800000E+00
  1.00800000E+00  1.60000000E+01  1.00800000E+00  1.00800000E+00  1.60000000E+01
  1.00800000E+00  1.00800000E+00  1.60000000E+01  1.00800000E+00  1.00800000E+00
  1.60000000E+01  1.00800000E+00  1.00800000E+00  1.60000000E+01  1.00800000E+00
  1.00800000E+00  1.60000000E+01  1.00800000E+00  1.00800000E+00  1.60000000E+01
  1.00800000E+00  1.00800000E+00  1.60000000E+01  1.00800000E+00  1.00800000E+00
  1.60000000E+01  1.00800000E+00  1.00800000E+00  1.60000000E+01  1.00800000E+00
  1.00800000E+00  1.60000000E+01  1.00800000E+00  1.00800000E+00  1.60000000E+01
  1.00800000E+00  1.00800000E+00  1.60000000E+01  1.00800000E+00  1.00800000E+00
  1.60000000E+01  1.00800000E+00  1.00800000E+00  1.60000000E+01  1.00800000E+00
  1.00800000E+00  1.60000000E+01  1.00800000E+00  1.00800000E+00  1.60000000E+01
  1.00800000E+00  1.00800000E+00  1.60000000E+01  1.00800000E+00  1.00800000E+00
  1.60000000E+01  1.00800000E+00  1.00800000E+00  1.60000000E+01  1.00800000E+00
  1.00800000E+00  1.60000000E+01  1.00800000E+00  1.00800000E+00  1.60000000E+01
  1.00800000E+00  1.00800000E+00  1.60000000E+01  1.00800000E+00  1.00800000E+00
  1.60000000E+01  1.00800000E+00  1.00800000E+00  1.60000000E+01  1.00800000E+00
  1.00800000E+00  1.60000000E+01  1.00800000E+00  1.00800000E+00  1.60000000E+01
  1.00800000E+00  1.00800000E+00  1.60000000E+01  1.00800000E+00  1.00800000E+00
  1.60000000E+01  1.00800000E+00  1.00800000E+00  1.60000000E+01  1.00800000E+00
  1.00800000E+00  1.60000000E+01  1.00800000E+00  1.00800000E+00  1.60000000E+01
  1.00800000E+00  1.00800000E+00  1.60000000E+01  1.00800000E+00  1.00800000E+00
  1.60000000E+01  1.00800000E+00  1.00800000E+00  1.60000000E+01  1.00800000E+00
  1.00800000E+00  1.60000000E+01  1.00800000E+00  1.00800000E+00  1.60000000E+01
  1.00800000E+00  1.00800000E+00  1.60000000E+01  1.00800000E+00  1.00800000E+00
  1.60000000E+01  1.00800000E+00  1.00800000E+00  1.60000000E+01  1.00800000E+00
  1.00800000E+00  1.60000000E+01  1.00800000E+00  1.00800000E+00  1.60000000E+01
  1.00800000E+00  1.00800000E+00  1.60000000E+01  1.00800000E+00  1.00800000E+00
  1.60000000E+01  1.00800000E+00  1.00800000E+00  1.60000000E+01  1.00800000E+00
  1.00800000E+00  1.60000000E+01  1.00800000E+00  1.00800000E+00  1.60000000E+01
  1.00800000E+00  1.00800000E+00  1.60000000E+01  1.00800000E+00  1.00800000E+00
  1.60000000E+01  1.00800000E+00  1.00800000E+00  1.60000000E+01  1.00800000E+00
  1.00800000E+00  1.60000000E+01  1.00800000E+00  1.00800000E+00  1.60000000E+01
  1.00800000E+00  1.00800000E+00  1.60000000E+01  1.00800000E+00  1.00800000E+00
  1.60000000E+01  1.00800000E+00  1.00800000E+00  1.60000000E+01  1.00800000E+00
  1.00800000E+00  1.60000000E+01  1.00800000E+00  1.00800000E+00  1.60000000E+01
  1.00800000E+00  1.00800000E+00  1.60000000E+01  1.00800000E+00  1.00800000E+00
  1.60000000E+01  1.00800000E+00  1.00800000E+00  1.60000000E+01  1.00800000E+00
  1.00800000E+00  1.60000000E+01  1.00800000E+00  1.00800000E+00  1.60000000E+01
  1.00800000E+00  1.00800000E+00  1.60000000E+01  1.00800000E+00  1.00800000E+00
  1.60000000E+01  1.00800000E+00  1.00800000E+00  1.60000000E+01  1.00800000E+00
  1.00800000E+00  1.60000000E+01  1.00800000E+00  1.00800000E+00  1.60000000E+01
  1.00800000E+00  1.00800000E+00  1.60000000E+01  1.00800000E+00  1.00800000E+00
  1.60000000E+01  1.00800000E+00  1.00800000E+00  1.60000000E+01  1.00800000E+00
  1.00800000E+00  1.60000000E+01  1.00800000E+00  1.00800000E+00  1.60000000E+01
  1.00800000E+00  1.00800000E+00  1.60000000E+01  1.00800000E+00  1.00800000E+00
  1.60000000E+01  1.00800000E+00  1.00800000E+00  1.60000000E+01  1.00800000E+00
  1.00800000E+00  1.60000000E+01  1.00800000E+00  1.00800000E+00  1.60000000E+01
  1.00800000E+00  1.00800000E+00  1.60000000E+01  1.00800000E+00  1.00800000E+00
  1.60000000E+01  1.00800000E+00  1.00800000E+00  1.60000000E+01  1.00800000E+00
  1.00800000E+00  1.60000000E+01  1.00800000E+00  1.00800000E+00  1.60000000E+01
  1.00800000E+00  1.00800000E+00  1.60000000E+01  1.00800000E+00  1.00800000E+00
  1.60000000E+01  1.00800000E+00  1.00800000E+00  1.60000000E+01  1.00800000E+00
  1.00800000E+00  1.60000000E+01  1.00800000E+00  1.00800000E+00  1.60000000E+01
  1.00800000E+00  1.00800000E+00  1.60000000E+01  1.00800000E+00  1.00800000E+00
  1.60000000E+01  1.00800000E+00  1.00800000E+00  1.60000000E+01  1.00800000E+00
  1.00800000E+00  1.60000000E+01  1.00800000E+00  1.00800000E+00  1.60000000E+01
  1.00800000E+00  1.00800000E+00  1.60000000E+01  1.00800000E+00  1.00800000E+00
  1.60000000E+01  1.00800000E+00  1.00800000E+00  1.60000000E+01  1.00800000E+00
  1.00800000E+00  1.60000000E+01  1.00800000E+00  1.00800000E+00  1.60000000E+01
  1.00800000E+00  1.00800000E+00  1.60000000E+01  1.00800000E+00  1.00800000E+00
  1.60000000E+01  1.00800000E+00  1.00800000E+00  1.60000000E+01  1.00800000E+00
  1.00800000E+00  1.60000000E+01  1.00800000E+00  1.00800000E+00  1.60000000E+01
  1.00800000E+00  1.00800000E+00  1.60000000E+01  1.00800000E+00  1.00800000E+00
  1.60000000E+01  1.00800000E+00  1.00800000E+00  1.60000000E+01  1.00800000E+00
  1.00800000E+00  1.60000000E+01  1.00800000E+00  1.00800000E+00  1.60000000E+01
  1.00800000E+00  1.00800000E+00  1.60000000E+01  1.00800000E+00  1.00800000E+00
  1.60000000E+01  1.00800000E+00  1.00800000E+00  1.60000000E+01  1.00800000E+00
  1.00800000E+00  1.60000000E+01  1.00800000E+00  1.00800000E+00  1.60000000E+01
  1.00800000E+00  1.00800000E+00  1.60000000E+01  1.00800000E+00  1.00800000E+00
  1.60000000E+01  1.00800000E+00  1.00800000E+00  1.60000000E+01  1.00800000E+00
  1.00800000E+00  1.60000000E+01  1.00800000E+00  1.00800000E+00  1.60000000E+01
  1.00800000E+00  1.00800000E+00  1.60000000E+01  1.00800000E+00  1.00800000E+00
  1.60000000E+01  1.00800000E+00  1.00800000E+00  1.60000000E+01  1.00800000E+00
  1.00800000E+00  1.60000000E+01  1.00800000E+00  1.00800000E+00  1.60000000E+01
  1.00800000E+00  1.00800000E+00  1.60000000E+01  1.00800000E+00  1.00800000E+00
  1.60000000E+01  1.00800000E+00  1.00800000E+00  1.60000000E+01  1.00800000E+00
  1.00800000E+00  1.60000000E+01  1.00800000E+00  1.00800000E+00  1.60000000E+01
  1.00800000E+00  1.00800000E+00  1.60000000E+01  1.00800000E+00  1.00800000E+00
  1.60000000E+01  1.00800000E+00  1.00800000E+00  1.60000000E+01  1.00800000E+00
  1.00800000E+00  1.60000000E+01  1.00800000E+00  1.00800000E+00  1.60000000E+01
  1.00800000E+00  1.00800000E+00  1.60000000E+01  1.00800000E+00  1.00800000E+00
  1.60000000E+01  1.00800000E+00  1.00800000E+00  1.60000000E+01  1.00800000E+00
  1.00800000E+00  1.60000000E+01  1.00800000E+00  1.00800000E+00  1.60000000E+01
  1.00800000E+00  1.00800000E+00  1.60000000E+01  1.00800000E+00  1.00800000E+00
  1.60000000E+01  1.00800000E+00  1.00800000E+00  1.60000000E+01  1.00800000E+00
  1.00800000E+00  1.60000000E+01  1.00800000E+00  1.00800000E+00  1.60000000E+01
  1.00800000E+00  1.00800000E+00  1.60000000E+01  1.00800000E+00  1.00800000E+00
  1.60000000E+01  1.00800000E+00  1.00800000E+00  1.60000000E+01  1.00800000E+00
  1.00800000E+00  1.60000000E+01  1.00800000E+00  1.00800000E+00  1.60000000E+01
  1.00800000E+00  1.00800000E+00  1.60000000E+01  1.00800000E+00  1.00800000E+00
  1.60000000E+01  1.00800000E+00  1.00800000E+00  1.60000000E+01  1.00800000E+00
  1.00800000E+00  1.60000000E+01  1.00800000E+00  1.00800000E+00  1.60000000E+01
  1.00800000E+00  1.00800000E+00  1.60000000E+01  1.00800000E+00  1.00800000E+00
  1.60000000E+01  1.00800000E+00  1.00800000E+00  1.60000000E+01  1.00800000E+00
  1.00800000E+00  1.60000000E+01  1.00800000E+00  1.00800000E+00  1.60000000E+01
  1.00800000E+00  1.00800000E+00  1.60000000E+01  1.00800000E+00  1.00800000E+00
  1.60000000E+01  1.00800000E+00  1.00800000E+00  1.60000000E+01  1.00800000E+00
  1.00800000E+00  1.60000000E+01  1.00800000E+00  1.00800000E+00  1.60000000E+01
  1.00800000E+00  1.00800000E+00  1.60000000E+01  1.00800000E+00  1.00800000E+00
  1.60000000E+01  1.00800000E+00  1.00800000E+00  1.60000000E+01  1.00800000E+00
  1.00800000E+00  1.60000000E+01  1.00800000E+00  1.00800000E+00  1.60000000E+01
  1.00800000E+00  1.00800000E+00  1.60000000E+01  1.00800000E+00  1.00800000E+00
  1.60000000E+01  1.00800000E+00  1.00800000E+00  1.60000000E+01  1.00800000E+00
  1.00800000E+00  1.60000000E+01  1.00800000E+00  1.00800000E+00  1.60000000E+01
  1.00800000E+00  1.00800000E+00  1.60000000E+01  1.00800000E+00  1.00800000E+00
  1.60000000E+01  1.00800000E+00  1.00800000E+00  1.60000000E+01  1.00800000E+00
  1.00800000E+00  1.60000000E+01  1.00800000E+00  1.00800000E+00  1.60000000E+01
  1.00800000E+00  1.00800000E+00  1.60000000E+01  1.00800000E+00  1.00800000E+00
  1.60000000E+01  1.00800000E+00  1.00800000E+00  1.60000000E+01  1.00800000E+00
  1.00800000E+00  1.60000000E+01  1.00800000E+00  1.00800000E+00  1.60000000E+01
  1.00800000E+00  1.00800000E+00  1.60000000E+01  1.00800000E+00  1.00800000E+00
  1.60000000E+01  1.00800000E+00  1.00800000E+00  1.60000000E+01  1.00800000E+00
  1.00800000E+00  1.60000000E+01  1.00800000E+00  1.00800000E+00  1.60000000E+01
  1.00800000E+00  1.00800000E+00  1.60000000E+01  1.00800000E+00  1.00800000E+00
  1.60000000E+01  1.00800000E+00  1.00800000E+00  1.60000000E+01  1.00800000E+00
  1.00800000E+00  1.60000000E+01  1.00800000E+00  1.00800000E+00  1.60000000E+01
  1.00800000E+00  1.00800000E+00  1.60000000E+01  1.00800000E+00  1.00800000E+00
  1.60000000E+01  1.00800000E+00  1.00800000E+00  1.60000000E+01  1.00800000E+00
  1.00800000E+00  1.60000000E+01  1.00800000E+00  1.00800000E+00  1.60000000E+01
  1.00800000E+00  1.00800000E+00  1.60000000E+01  1.00800000E+00  1.00800000E+00
  1.60000000E+01  1.00800000E+00  1.00800000E+00  1.60000000E+01  1.00800000E+00
  1.00800000E+00  1.60000000E+01  1.00800000E+00  1.00800000E+00  1.60000000E+01
  1.00800000E+00  1.00800000E+00  1.60000000E+01  1.00800000E+00  1.00800000E+00
  1.60000000E+01  1.00800000E+00  1.00800000E+00  1.60000000E+01  1.00800000E+00
  1.00800000E+00  1.60000000E+01  1.00800000E+00  1.00800000E+00  1.60000000E+01
  1.00800000E+00  1.00800000E+00  1.60000000E+01  1.00800000E+00  1.00800000E+00
  1.60000000E+01  1.00800000E+00  1.00800000E+00  1.60000000E+01  1.00800000E+00
  1.00800000E+00  1.60000000E+01  1.00800000E+00  1.00800000E+00  1.60000000E+01
  1.00800000E+00  1.00800000E+00  1.60000000E+01  1.00800000E+00  1.00800000E+00
  1.60000000E+01  1.00800000E+00  1.00800000E+00  1.60000000E+01  1.00800000E+00
  1.00800000E+00  1.60000000E+01  1.00800000E+00  1.00800000E+00  1.60000000E+01
  1.00800000E+00  1.00800000E+00  1.60000000E+01  1.00800000E+00  1.00800000E+00
  1.60000000E+01  1.00800000E+00  1.00800000E+00  1.60000000E+01  1.00800000E+00
  1.00800000E+00  1.60000000E+01  1.00800000E+00  1.00800000E+00  1.60000000E+01
  1.00800000E+00  1.00800000E+00  1.60000000E+01  1.00800000E+00  1.00800000E+00
  1.60000000E+01  1.00800000E+00  1.00800000E+00  1.60000000E+01  1.00800000E+00
  1.00800000E+00  1.60000000E+01  1.00800000E+00  1.00800000E+00  1.60000000E+01
  1.00800000E+00  1.00800000E+00  1.60000000E+01  1.00800000E+00  1.00800000E+00
  1.60000000E+01  1.00800000E+00  1.00800000E+00  1.60000000E+01  1.00800000E+00
  1.00800000E+00  1.60000000E+01  1.00800000E+00  1.00800000E+00  1.60000000E+01
  1.00800000E+00  1.00800000E+00  1.60000000E+01  1.00800000E+00  1.00800000E+00
  1.60000000E+01  1.00800000E+00  1.00800000E+00  1.60000000E+01  1.00800000E+00
  1.00800000E+00  1.60000000E+01  1.00800000E+00  1.00800000E+00  1.60000000E+01
  1.00800000E+00  1.00800000E+00  1.60000000E+01  1.00800000E+00  1.00800000E+00
  1.60000000E+01  1.00800000E+00  1.00800000E+00  1.60000000E+01  1.00800000E+00
  1.00800000E+00  1.60000000E+01  1.00800000E+00  1.00800000E+00  1.60000000E+01
  1.00800000E+00  1.00800000E+00  1.60000000E+01  1.00800000E+00  1.00800000E+00
  1.60000000E+01  1.00800000E+00  1.00800000E+00  1.60000000E+01  1.00800000E+00
  1.00800000E+00  1.60000000E+01  1.00800000E+00  1.00800000E+00  1.60000000E+01
  1.00800000E+00  1.00800000E+00  1.60000000E+01  1.00800000E+00  1.00800000E+00
  1.60000000E+01  1.00800000E+00  1.00800000E+00  1.60000000E+01  1.00800000E+00
  1.00800000E+00  1.60000000E+01  1.00800000E+00  1.00800000E+00  1.60000000E+01
  1.00800000E+00  1.00800000E+00  1.60000000E+01  1.00800000E+00  1.00800000E+00
  1.60000000E+01  1.00800000E+00  1.00800000E+00  1.60000000E+01  1.00800000E+00
  1.00800000E+00  1.60000000E+01  1.00800000E+00  1.00800000E+00  1.60000000E+01
  1.00800000E+00  1.00800000E+00  1.60000000E+01  1.00800000E+00  1.00800000E+00
  1.60000000E+01  1.00800000E+00  1.00800000E+00  1.60000000E+01  1.00800000E+00
  1.00800000E+00  1.60000000E+01  1.00800000E+00  1.00800000E+00  1.60000000E+01
  1.00800000E+00  1.00800000E+00  1.60000000E+01  1.00800000E+00  1.00800000E+00
  1.60000000E+01  1.00800000E+00  1.00800000E+00  1.60000000E+01  1.00800000E+00
  1.00800000E+00  1.60000000E+01  1.00800000E+00  1.00800000E+00  1.60000000E+01
  1.00800000E+00  1.00800000E+00  1.60000000E+01  1.00800000E+00  1.00800000E+00
  1.60000000E+01  1.00800000E+00  1.00800000E+00  1.60000000E+01  1.00800000E+00
  1.00800000E+00  1.60000000E+01  1.00800000E+00  1.00800000E+00  1.60000000E+01
  1.00800000E+00  1.00800000E+00  1.60000000E+01  1.00800000E+00  1.00800000E+00
  1.60000000E+01  1.00800000E+00  1.00800000E+00  1.60000000E+01  1.00800000E+00
  1.00800000E+00  1.60000000E+01  1.00800000E+00  1.00800000E+00  1.60000000E+01
  1.00800000E+00  1.00800000E+00  1.60000000E+01  1.00800000E+00  1.00800000E+00
  1.60000000E+01  1.00800000E+00  1.00800000E+00  1.60000000E+01  1.00800000E+00
  1.00800000E+00  1.60000000E+01  1.00800000E+00  1.00800000E+00  1.60000000E+01
  1.00800000E+00  1.00800000E+00  1.60000000E+01  1.00800000E+00  1.00800000E+00
  1.60000000E+01  1.00800000E+00  1.00800000E+00  1.60000000E+01  1.00800000E+00
  1.00800000E+00  1.60000000E+01  1.00800000E+00  1.00800000E+00  1.60000000E+01
  1.00800000E+00  1.00800000E+00  1.60000000E+01  1.00800000E+00  1.00800000E+00
  1.60000000E+01  1.00800000E+00  1.00800000E+00  1.60000000E+01  1.00800000E+00
  1.00800000E+00  1.60000000E+01  1.00800000E+00  1.00800000E+00  1.60000000E+01
  1.00800000E+00  1.00800000E+00  1.60000000E+01  1.00800000E+00  1.00800000E+00
  1.60000000E+01  1.00800000E+00  1.00800000E+00  1.60000000E+01  1.00800000E+00
  1.00800000E+00  1.60000000E+01  1.00800000E+00  1.00800000E+00  1.60000000E+01
  1.00800000E+00  1.00800000E+00  1.60000000E+01  1.00800000E+00  1.00800000E+00
  1.60000000E+01  1.00800000E+00  1.00800000E+00  1.60000000E+01  1.00800000E+00
  1.00800000E+00  1.60000000E+01  1.00800000E+00  1.00800000E+00  1.60000000E+01
  1.00800000E+00  1.00800000E+00  1.60000000E+01  1.00800000E+00  1.00800000E+00
  1.60000000E+01  1.00800000E+00  1.00800000E+00  1.60000000E+01  1.00800000E+00
  1.00800000E+00  1.60000000E+01  1.00800000E+00  1.00800000E+00  1.60000000E+01
  1.00800000E+00  1.00800000E+00  1.60000000E+01  1.00800000E+00  1.00800000E+00
  1.60000000E+01  1.00800000E+00  1.00800000E+00  1.60000000E+01  1.00800000E+00
  1.00800000E+00  1.60000000E+01  1.00800000E+00  1.00800000E+00  1.60000000E+01
  1.00800000E+00  1.00800000E+00  1.60000000E+01  1.00800000E+00  1.00800000E+00
  1.60000000E+01  1.00800000E+00  1.00800000E+00  1.60000000E+01  1.00800000E+00
  1.00800000E+00  1.60000000E+01  1.00800000E+00  1.00800000E+00  1.60000000E+01
  1.00800000E+00  1.00800000E+00  1.60000000E+01  1.00800000E+00  1.00800000E+00
  1.60000000E+01  1.00800000E+00  1.00800000E+00  1.60000000E+01  1.00800000E+00
  1.00800000E+00  1.60000000E+01  1.00800000E+00  1.00800000E+00  1.60000000E+01
  1.00800000E+00  1.00800000E+00  1.60000000E+01  1.00800000E+00  1.00800000E+00
  1.60000000E+01  1.00800000E+00  1.00800000E+00  1.60000000E+01  1.00800000E+00
  1.00800000E+00  1.60000000E+01  1.00800000E+00  1.00800000E+00  1.60000000E+01
  1.00800000E+00  1.00800000E+00  1.60000000E+01  1.00800000E+00  1.00800000E+00
  1.60000000E+01  1.00800000E+00  1.00800000E+00  1.60000000E+01  1.00800000E+00
  1.00800000E+00  1.60000000E+01  1.00800000E+00  1.00800000E+00  1.60000000E+01
  1.00800000E+00  1.00800000E+00  1.60000000E+01  1.00800000E+00  1.00800000E+00
  1.60000000E+01  1.00800000E+00  1.00800000E+00  1.60000000E+01  1.00800000E+00
  1.00800000E+00  1.60000000E+01  1.00800000E+00  1.00800000E+00  1.60000000E+01
  1.00800000E+00  1.00800000E+00  1.60000000E+01  1.00800000E+00  1.00800000E+00
  1.60000000E+01  1.00800000E+00  1.00800000E+00  1.60000000E+01  1.00800000E+00
  1.00800000E+00  1.60000000E+01  1.00800000E+00  1.00800000E+00  1.60000000E+01
  1.00800000E+00  1.00800000E+00  1.60000000E+01  1.00800000E+00  1.00800000E+00
  1.60000000E+01  1.00800000E+00  1.00800000E+00  1.60000000E+01  1.00800000E+00
  1.00800000E+00  1.60000000E+01  1.00800000E+00  1.00800000E+00  1.60000000E+01
  1.00800000E+00  1.00800000E+00  1.60000000E+01  1.00800000E+00  1.00800000E+00
  1.60000000E+01  1.00800000E+00  1.00800000E+00  1.60000000E+01  1.00800000E+00
  1.00800000E+00  1.60000000E+01  1.00800000E+00  1.00800000E+00  1.60000000E+01
  1.00800000E+00  1.00800000E+00  1.60000000E+01  1.00800000E+00  1.00800000E+00
  1.60000000E+01  1.00800000E+00  1.00800000E+00  1.60000000E+01  1.00800000E+00
  1.00800000E+00  1.60000000E+01  1.00800000E+00  1.00800000E+00  1.60000000E+01
  1.00800000E+00  1.00800000E+00  1.60000000E+01  1.00800000E+00  1.00800000E+00
  1.60000000E+01  1.00800000E+00  1.00800000E+00  1.60000000E+01  1.00800000E+00
  1.00800000E+00  1.60000000E+01  1.00800000E+00  1.00800000E+00  1.60000000E+01
  1.00800000E+00  1.00800000E+00  1.60000000E+01  1.00800000E+00  1.00800000E+00
  1.60000000E+01  1.00800000E+00  1.00800000E+00  1.60000000E+01  1.00800000E+00
  1.00800000E+00  1.60000000E+01  1.00800000E+00  1.00800000E+00  1.60000000E+01
  1.00800000E+00  1.00800000E+00  1.60000000E+01  1.00800000E+00  1.00800000E+00
  1.60000000E+01  1.00800000E+00  1.00800000E+00  1.60000000E+01  1.00800000E+00
  1.00800000E+00  1.60000000E+01  1.00800000E+00  1.00800000E+00  1.60000000E+01
  1.00800000E+00  1.00800000E+00  1.60000000E+01  1.00800000E+00  1.00800000E+00
  1.60000000E+01  1.00800000E+00  1.00800000E+00  1.60000000E+01  1.00800000E+00
  1.00800000E+00  1.60000000E+01  1.00800000E+00  1.00800000E+00  1.60000000E+01
  1.00800000E+00  1.00800000E+00  1.60000000E+01  1.00800000E+00  1.00800000E+00
  1.60000000E+01  1.00800000E+00  1.00800000E+00  1.60000000E+01  1.00800000E+00
  1.00800000E+00  1.60000000E+01  1.00800000E+00  1.00800000E+00  1.60000000E+01
  1.00800000E+00  1.00800000E+00  1.60000000E+01  1.00800000E+00  1.00800000E+00
  1.60000000E+01  1.00800000E+00  1.00800000E+00  1.60000000E+01  1.00800000E+00
  1.00800000E+00  1.60000000E+01  1.00800000E+00  1.00800000E+00  1.60000000E+01
  1.00800000E+00  1.00800000E+00  1.60000000E+01  1.00800000E+00  1.00800000E+00
  1.60000000E+01  1.00800000E+00  1.00800000E+00  1.60000000E+01  1.00800000E+00
  1.00800000E+00  1.60000000E+01  1.00800000E+00  1.00800000E+00  1.60000000E+01
  1.00800000E+00  1.00800000E+00  1.60000000E+01  1.00800000E+00  1.00800000E+00
  1.60000000E+01  1.00800000E+00  1.00800000E+00  1.60000000E+01  1.00800000E+00
  1.00800000E+00  1.60000000E+01  1.00800000E+00  1.00800000E+00  1.60000000E+01
  1.00800000E+00  1.00800000E+00  1.60000000E+01  1.00800000E+00  1.00800000E+00
  1.60000000E+01  1.00800000E+00  1.00800000E+00  1.60000000E+01  1.00800000E+00
  1.00800000E+00  1.60000000E+01  1.00800000E+00  1.00800000E+00  1.60000000E+01
  1.00800000E+00  1.00800000E+00  1.60000000E+01  1.00800000E+00  1.00800000E+00
  1.60000000E+01  1.00800000E+00  1.00800000E+00  1.60000000E+01  1.00800000E+00
  1.00800000E+00  1.60000000E+01  1.00800000E+00  1.00800000E+00  1.60000000E+01
  1.00800000E+00  1.00800000E+00  1.60000000E+01  1.00800000E+00  1.00800000E+00
  1.60000000E+01  1.00800000E+00  1.00800000E+00  1.60000000E+01  1.00800000E+00
  1.00800000E+00  1.60000000E+01  1.00800000E+00  1.00800000E+00  1.60000000E+01
  1.00800000E+00  1.00800000E+00  1.60000000E+01  1.00800000E+00  1.00800000E+00
  1.60000000E+01  1.00800000E+00  1.00800000E+00  1.60000000E+01  1.00800000E+00
  1.00800000E+00  1.60000000E+01  1.00800000E+00  1.00800000E+00  1.60000000E+01
  1.00800000E+00  1.00800000E+00  1.60000000E+01  1.00800000E+00  1.00800000E+00
  1.60000000E+01  1.00800000E+00  1.00800000E+00  1.60000000E+01  1.00800000E+00
  1.00800000E+00  1.60000000E+01  1.00800000E+00  1.00800000E+00  1.60000000E+01
  1.00800000E+00  1.00800000E+00  1.60000000E+01  1.00800000E+00  1.00800000E+00
  1.60000000E+01  1.00800000E+00  1.00800000E+00  1.60000000E+01  1.00800000E+00
  1.00800000E+00  1.60000000E+01  1.00800000E+00  1.00800000E+00  1.60000000E+01
  1.00800000E+00  1.00800000E+00  1.60000000E+01  1.00800000E+00  1.00800000E+00
  1.60000000E+01  1.00800000E+00  1.00800000E+00  1.60000000E+01  1.00800000E+00
  1.00800000E+00  1.60000000E+01  1.00800000E+00  1.00800000E+00  1.60000000E+01
  1.00800000E+00  1.00800000E+00  1.60000000E+01  1.00800000E+00  1.00800000E+00
  1.60000000E+01  1.00800000E+00  1.00800000E+00  1.60000000E+01  1.00800000E+00
  1.00800000E+00  1.60000000E+01  1.00800000E+00  1.00800000E+00  1.60000000E+01
  1.00800000E+00  1.00800000E+00  1.60000000E+01  1.00800000E+00  1.00800000E+00
  1.60000000E+01  1.00800000E+00  1.00800000E+00  1.60000000E+01  1.00800000E+00
  1.00800000E+00  1.60000000E+01  1.00800000E+00  1.00800000E+00  1.60000000E+01
  1.00800000E+00  1.00800000E+00  1.60000000E+01  1.00800000E+00  1.00800000E+00
  1.60000000E+01  1.00800000E+00  1.00800000E+00  1.60000000E+01  1.00800000E+00
  1.00800000E+00  1.60000000E+01  1.00800000E+00  1.00800000E+00  1.60000000E+01
  1.00800000E+00  1.00800000E+00  1.60000000E+01  1.00800000E+00  1.00800000E+00
  1.60000000E+01  1.00800000E+00  1.00800000E+00  1.60000000E+01  1.00800000E+00
  1.00800000E+00  1.60000000E+01  1.00800000E+00  1.00800000E+00  1.60000000E+01
  1.00800000E+00  1.00800000E+00  1.60000000E+01  1.00800000E+00  1.00800000E+00
  1.60000000E+01  1.00800000E+00  1.00800000E+00  1.60000000E+01  1.00800000E+00
  1.00800000E+00  1.60000000E+01  1.00800000E+00  1.00800000E+00  1.60000000E+01
  1.00800000E+00  1.00800000E+00  1.60000000E+01  1.00800000E+00  1.00800000E+00
  1.60000000E+01  1.00800000E+00  1.00800000E+00  1.60000000E+01  1.00800000E+00
  1.00800000E+00  1.60000000E+01  1.00800000E+00  1.00800000E+00  1.60000000E+01
  1.00800000E+00  1.00800000E+00  1.60000000E+01  1.00800000E+00  1.00800000E+00
  1.60000000E+01  1.00800000E+00  1.00800000E+00  1.60000000E+01  1.00800000E+00
  1.00800000E+00  1.60000000E+01  1.00800000E+00  1.00800000E+00  1.60000000E+01
  1.00800000E+00  1.00800000E+00  1.60000000E+01  1.00800000E+00  1.00800000E+00
  1.60000000E+01  1.00800000E+00  1.00800000E+00  1.60000000E+01  1.00800000E+00
  1.00800000E+00  1.60000000E+01  1.00800000E+00  1.00800000E+00  1.60000000E+01
  1.00800000E+00  1.00800000E+00  1.60000000E+01  1.00800000E+00  1.00800000E+00
  1.60000000E+01  1.00800000E+00  1.00800000E+00  1.60000000E+01  1.00800000E+00
  1.00800000E+00  1.60000000E+01  1.00800000E+00  1.00800000E+00  1.60000000E+01
  1.00800000E+00  1.00800000E+00  1.60000000E+01  1.00800000E+00  1.00800000E+00
  1.60000000E+01  1.00800000E+00  1.00800000E+00  1.60000000E+01  1.00800000E+00
  1.00800000E+00  1.60000000E+01  1.00800000E+00  1.00800000E+00  1.60000000E+01
  1.00800000E+00  1.00800000E+00  1.60000000E+01  1.00800000E+00  1.00800000E+00
  1.60000000E+01  1.00800000E+00  1.00800000E+00  1.60000000E+01  1.00800000E+00
  1.00800000E+00  1.60000000E+01  1.00800000E+00  1.00800000E+00  1.60000000E+01
  1.00800000E+00  1.00800000E+00  1.60000000E+01  1.00800000E+00  1.00800000E+00
  1.60000000E+01  1.00800000E+00  1.00800000E+00  1.60000000E+01  1.00800000E+00
  1.00800000E+00  1.60000000E+01  1.00800000E+00  1.00800000E+00  1.60000000E+01
  1.00800000E+00  1.00800000E+00  1.60000000E+01  1.00800000E+00  1.00800000E+00
  1.60000000E+01  1.00800000E+00  1.00800000E+00  1.60000000E+01  1.00800000E+00
  1.00800000E+00  1.60000000E+01  1.00800000E+00  1.00800000E+00  1.60000000E+01
  1.00800000E+00  1.00800000E+00  1.60000000E+01  1.00800000E+00  1.00800000E+00
  1.60000000E+01  1.00800000E+00  1.00800000E+00  1.60000000E+01  1.00800000E+00
  1.00800000E+00  1.60000000E+01  1.00800000E+00  1.00800000E+00  1.60000000E+01
  1.00800000E+00  1.00800000E+00  1.60000000E+01  1.00800000E+00  1.00800000E+00
  1.60000000E+01  1.00800000E+00  1.00800000E+00  1.60000000E+01  1.00800000E+00
  1.00800000E+00  1.60000000E+01  1.00800000E+00  1.00800000E+00  1.60000000E+01
  1.00800000E+00  1.00800000E+00  1.60000000E+01  1.00800000E+00  1.00800000E+00
  1.60000000E+01  1.00800000E+00  1.00800000E+00  1.60000000E+01  1.00800000E+00
  1.00800000E+00  1.60000000E+01  1.00800000E+00  1.00800000E+00  1.60000000E+01
  1.00800000E+00  1.00800000E+00  1.60000000E+01  1.00800000E+00  1.00800000E+00
  1.60000000E+01  1.00800000E+00  1.00800000E+00  1.60000000E+01  1.00800000E+00
  1.00800000E+00  1.60000000E+01  1.00800000E+00  1.00800000E+00  1.60000000E+01
  1.00800000E+00  1.00800000E+00  1.60000000E+01  1.00800000E+00  1.00800000E+00
  1.60000000E+01  1.00800000E+00  1.00800000E+00  1.60000000E+01  1.00800000E+00
  1.00800000E+00  1.60000000E+01  1.00800000E+00  1.00800000E+00  1.60000000E+01
  1.00800000E+00  1.00800000E+00  1.60000000E+01  1.00800000E+00  1.00800000E+00
  1.60000000E+01  1.00800000E+00  1.00800000E+00  1.60000000E+01  1.00800000E+00
  1.00800000E+00  1.60000000E+01  1.00800000E+00  1.00800000E+00  1.60000000E+01
  1.00800000E+00  1.00800000E+00  1.60000000E+01  1.00800000E+00  1.00800000E+00
  1.60000000E+01  1.00800000E+00  1.00800000E+00  1.60000000E+01  1.00800000E+00
  1.00800000E+00  1.60000000E+01  1.00800000E+00  1.00800000E+00  1.60000000E+01
  1.00800000E+00  1.00800000E+00  1.60000000E+01  1.00800000E+00  1.00800000E+00
  1.60000000E+01  1.00800000E+00  1.00800000E+00  1.60000000E+01  1.00800000E+00
  1.00800000E+00  1.60000000E+01  1.00800000E+00  1.00800000E+00  1.60000000E+01
  1.00800000E+00  1.00800000E+00  1.60000000E+01  1.00800000E+00  1.00800000E+00
  1.60000000E+01  1.00800000E+00  1.00800000E+00  1.60000000E+01  1.00800000E+00
  1.00800000E+00  1.60000000E+01  1.00800000E+00  1.00800000E+00  1.60000000E+01
  1.00800000E+00  1.00800000E+00  1.60000000E+01  1.00800000E+00  1.00800000E+00
  1.60000000E+01  1.00800000E+00  1.00800000E+00  1.60000000E+01  1.00800000E+00
  1.00800000E+00  1.60000000E+01  1.00800000E+00  1.00800000E+00  1.60000000E+01
  1.00800000E+00  1.00800000E+00  1.60000000E+01  1.00800000E+00  1.00800000E+00
  1.60000000E+01  1.00800000E+00  1.00800000E+00  1.60000000E+01  1.00800000E+00
  1.00800000E+00  1.60000000E+01  1.00800000E+00  1.00800000E+00  1.60000000E+01
  1.00800000E+00  1.00800000E+00  1.60000000E+01  1.00800000E+00  1.00800000E+00
  1.60000000E+01  1.00800000E+00  1.00800000E+00  1.60000000E+01  1.00800000E+00
  1.00800000E+00  1.60000000E+01  1.00800000E+00  1.00800000E+00  1.60000000E+01
  1.00800000E+00  1.00800000E+00  1.60000000E+01  1.00800000E+00  1.00800000E+00
  1.60000000E+01  1.00800000E+00  1.00800000E+00  1.60000000E+01  1.00800000E+00
  1.00800000E+00  1.60000000E+01  1.00800000E+00  1.00800000E+00  1.60000000E+01
  1.00800000E+00  1.00800000E+00  1.60000000E+01  1.00800000E+00  1.00800000E+00
  1.60000000E+01  1.00800000E+00  1.00800000E+00  1.60000000E+01  1.00800000E+00
  1.00800000E+00  1.60000000E+01  1.00800000E+00  1.00800000E+00  1.60000000E+01
  1.00800000E+00  1.00800000E+00  1.60000000E+01  1.00800000E+00  1.00800000E+00
  1.60000000E+01  1.00800000E+00  1.00800000E+00  1.60000000E+01  1.00800000E+00
  1.00800000E+00  1.60000000E+01  1.00800000E+00  1.00800000E+00  1.60000000E+01
  1.00800000E+00  1.00800000E+00  1.60000000E+01  1.00800000E+00  1.00800000E+00
  1.60000000E+01  1.00800000E+00  1.00800000E+00  1.60000000E+01  1.00800000E+00
  1.00800000E+00  1.60000000E+01  1.00800000E+00  1.00800000E+00  1.60000000E+01
  1.00800000E+00  1.00800000E+00  1.60000000E+01  1.00800000E+00  1.00800000E+00
  1.60000000E+01  1.00800000E+00  1.00800000E+00  1.60000000E+01  1.00800000E+00
  1.00800000E+00  1.60000000E+01  1.00800000E+00  1.00800000E+00  1.60000000E+01
  1.00800000E+00  1.00800000E+00  1.60000000E+01  1.00800000E+00  1.00800000E+00
  1.60000000E+01  1.00800000E+00  1.00800000E+00  1.60000000E+01  1.00800000E+00
  1.00800000E+00  1.60000000E+01  1.00800000E+00  1.00800000E+00  1.60000000E+01
  1.00800000E+00  1.00800000E+00  1.60000000E+01  1.00800000E+00  1.00800000E+00
  1.60000000E+01  1.00800000E+00  1.00800000E+00  1.60000000E+01  1.00800000E+00
  1.00800000E+00  1.60000000E+01  1.00800000E+00  1.00800000E+00  1.60000000E+01
  1.00800000E+00  1.00800000E+00  1.60000000E+01  1.00800000E+00  1.00800000E+00
  1.60000000E+01  1.00800000E+00  1.00800000E+00  1.60000000E+01  1.00800000E+00
  1.00800000E+00  1.60000000E+01  1.00800000E+00  1.00800000E+00  1.60000000E+01
  1.00800000E+00  1.00800000E+00  1.60000000E+01  1.00800000E+00  1.00800000E+00
  1.60000000E+01  1.00800000E+00  1.00800000E+00  1.60000000E+01  1.00800000E+00
  1.00800000E+00  1.60000000E+01  1.00800000E+00  1.00800000E+00  1.60000000E+01
  1.00800000E+00  1.00800000E+00  1.60000000E+01  1.00800000E+00  1.00800000E+00
  1.60000000E+01  1.00800000E+00  1.00800000E+00  1.60000000E+01  1.00800000E+00
  1.00800000E+00  1.60000000E+01  1.00800000E+00  1.00800000E+00  1.60000000E+01
  1.00800000E+00  1.00800000E+00  1.60000000E+01  1.00800000E+00  1.00800000E+00
  1.60000000E+01  1.00800000E+00  1.00800000E+00  1.60000000E+01  1.00800000E+00
  1.00800000E+00  1.60000000E+01  1.00800000E+00  1.00800000E+00  1.60000000E+01
  1.00800000E+00  1.00800000E+00  1.60000000E+01  1.00800000E+00  1.00800000E+00
  1.60000000E+01  1.00800000E+00  1.00800000E+00  1.60000000E+01  1.00800000E+00
  1.00800000E+00  1.60000000E+01  1.00800000E+00  1.00800000E+00  1.60000000E+01
  1.00800000E+00  1.00800000E+00  1.60000000E+01  1.00800000E+00  1.00800000E+00
  1.60000000E+01  1.00800000E+00  1.00800000E+00  1.60000000E+01  1.00800000E+00
  1.00800000E+00  1.60000000E+01  1.00800000E+00  1.00800000E+00  1.60000000E+01
  1.00800000E+00  1.00800000E+00  1.60000000E+01  1.00800000E+00  1.00800000E+00
  1.60000000E+01  1.00800000E+00  1.00800000E+00  1.60000000E+01  1.00800000E+00
  1.00800000E+00  1.60000000E+01  1.00800000E+00  1.00800000E+00  1.60000000E+01
  1.00800000E+00  1.00800000E+00  1.60000000E+01  1.00800000E+00  1.00800000E+00
  1.60000000E+01  1.00800000E+00  1.00800000E+00  1.60000000E+01  1.00800000E+00
  1.00800000E+00  1.60000000E+01  1.00800000E+00  1.00800000E+00  1.60000000E+01
  1.00800000E+00  1.00800000E+00  1.60000000E+01  1.00800000E+00  1.00800000E+00
  1.60000000E+01  1.00800000E+00  1.00800000E+00  1.60000000E+01  1.00800000E+00
  1.00800000E+00  1.60000000E+01  1.00800000E+00  1.00800000E+00  1.60000000E+01
  1.00800000E+00  1.00800000E+00  1.60000000E+01  1.00800000E+00  1.00800000E+00
  1.60000000E+01  1.00800000E+00  1.00800000E+00  1.60000000E+01  1.00800000E+00
  1.00800000E+00  1.60000000E+01  1.00800000E+00  1.00800000E+00  1.60000000E+01
  1.00800000E+00  1.00800000E+00  1.60000000E+01  1.00800000E+00  1.00800000E+00
  1.60000000E+01  1.00800000E+00  1.00800000E+00  1.60000000E+01  1.00800000E+00
  1.00800000E+00  1.60000000E+01  1.00800000E+00  1.00800000E+00  1.60000000E+01
  1.00800000E+00  1.00800000E+00  1.60000000E+01  1.00800000E+00  1.00800000E+00
  1.60000000E+01  1.00800000E+00  1.00800000E+00  1.60000000E+01  1.00800000E+00
  1.00800000E+00  1.60000000E+01  1.00800000E+00  1.00800000E+00  1.60000000E+01
  1.00800000E+00  1.00800000E+00  1.60000000E+01  1.00800000E+00  1.00800000E+00
  1.60000000E+01  1.00800000E+00  1.00800000E+00  1.60000000E+01  1.00800000E+00
  1.00800000E+00  1.60000000E+01  1.00800000E+00  1.00800000E+00  1.60000000E+01
  1.00800000E+00  1.00800000E+00  1.60000000E+01  1.00800000E+00  1.00800000E+00
  1.60000000E+01  1.00800000E+00  1.00800000E+00  1.60000000E+01  1.00800000E+00
  1.00800000E+00  1.60000000E+01  1.00800000E+00  1.00800000E+00  1.60000000E+01
  1.00800000E+00  1.00800000E+00  1.60000000E+01  1.00800000E+00  1.00800000E+00
  1.60000000E+01  1.00800000E+00  1.00800000E+00  1.60000000E+01  1.00800000E+00
  1.00800000E+00  1.60000000E+01  1.00800000E+00  1.00800000E+00  1.60000000E+01
  1.00800000E+00  1.00800000E+00  1.60000000E+01  1.00800000E+00  1.00800000E+00
  1.60000000E+01  1.00800000E+00  1.00800000E+00  1.60000000E+01  1.00800000E+00
  1.00800000E+00  1.60000000E+01  1.00800000E+00  1.00800000E+00  1.60000000E+01
  1.00800000E+00  1.00800000E+00  1.60000000E+01  1.00800000E+00  1.00800000E+00
  1.60000000E+01  1.00800000E+00  1.00800000E+00  1.60000000E+01  1.00800000E+00
  1.00800000E+00  1.60000000E+01  1.00800000E+00  1.00800000E+00  1.60000000E+01
  1.00800000E+00  1.00800000E+00  1.60000000E+01  1.00800000E+00  1.00800000E+00
  1.60000000E+01  1.00800000E+00  1.00800000E+00  1.60000000E+01  1.00800000E+00
  1.00800000E+00  1.60000000E+01  1.00800000E+00  1.00800000E+00  1.60000000E+01
  1.00800000E+00  1.00800000E+00  1.60000000E+01  1.00800000E+00  1.00800000E+00
  1.60000000E+01  1.00800000E+00  1.00800000E+00  1.60000000E+01  1.00800000E+00
  1.00800000E+00  1.60000000E+01  1.00800000E+00  1.00800000E+00  1.60000000E+01
  1.00800000E+00  1.00800000E+00  1.60000000E+01  1.00800000E+00  1.00800000E+00
  1.60000000E+01  1.00800000E+00  1.00800000E+00  1.60000000E+01  1.00800000E+00
  1.00800000E+00  1.60000000E+01  1.00800000E+00  1.00800000E+00  1.60000000E+01
  1.00800000E+00  1.00800000E+00  1.60000000E+01  1.00800000E+00  1.00800000E+00
  1.60000000E+01  1.00800000E+00  1.00800000E+00  1.60000000E+01  1.00800000E+00
  1.00800000E+00  1.60000000E+01  1.00800000E+00  1.00800000E+00  1.60000000E+01
  1.00800000E+00  1.00800000E+00  1.60000000E+01  1.00800000E+00  1.00800000E+00
  1.60000000E+01  1.00800000E+00  1.00800000E+00  1.60000000E+01  1.00800000E+00
  1.00800000E+00  1.60000000E+01  1.00800000E+00  1.00800000E+00  1.60000000E+01
  1.00800000E+00  1.00800000E+00  1.60000000E+01  1.00800000E+00  1.00800000E+00
  1.60000000E+01  1.00800000E+00  1.00800000E+00  1.60000000E+01  1.00800000E+00
  1.00800000E+00  1.60000000E+01  1.00800000E+00  1.00800000E+00  1.60000000E+01
  1.00800000E+00  1.00800000E+00  1.60000000E+01  1.00800000E+00  1.00800000E+00
  1.60000000E+01  1.00800000E+00  1.00800000E+00  1.60000000E+01  1.00800000E+00
  1.00800000E+00  1.60000000E+01  1.00800000E+00  1.00800000E+00  1.60000000E+01
  1.00800000E+00  1.00800000E+00  1.60000000E+01  1.00800000E+00  1.00800000E+00
  1.60000000E+01  1.00800000E+00  1.00800000E+00  1.60000000E+01  1.00800000E+00
  1.00800000E+00  1.60000000E+01  1.00800000E+00  1.00800000E+00  1.60000000E+01
  1.00800000E+00  1.00800000E+00  1.60000000E+01  1.00800000E+00  1.00800000E+00
  1.60000000E+01  1.00800000E+00  1.00800000E+00  1.60000000E+01  1.00800000E+00
  1.00800000E+00  1.60000000E+01  1.00800000E+00  1.00800000E+00  1.60000000E+01
  1.00800000E+00  1.00800000E+00  1.60000000E+01  1.00800000E+00  1.00800000E+00
  1.60000000E+01  1.00800000E+00  1.00800000E+00  1.60000000E+01  1.00800000E+00
  1.00800000E+00  1.60000000E+01  1.00800000E+00  1.00800000E+00  1.60000000E+01
  1.00800000E+00  1.00800000E+00  1.60000000E+01  1.00800000E+00  1.00800000E+00
  1.60000000E+01  1.00800000E+00  1.00800000E+00  1.60000000E+01  1.00800000E+00
  1.00800000E+00  1.60000000E+01  1.00800000E+00  1.00800000E+00  1.60000000E+01
  1.00800000E+00  1.00800000E+00  1.60000000E+01  1.00800000E+00  1.00800000E+00
  1.60000000E+01  1.00800000E+00  1.00800000E+00  1.60000000E+01  1.00800000E+00
  1.00800000E+00  1.60000000E+01  1.00800000E+00  1.00800000E+00  1.60000000E+01
  1.00800000E+00  1.00800000E+00  1.60000000E+01  1.00800000E+00  1.00800000E+00
  1.60000000E+01  1.00800000E+00  1.00800000E+00  1.60000000E+01  1.00800000E+00
  1.00800000E+00  1.60000000E+01  1.00800000E+00  1.00800000E+00  1.60000000E+01
  1.00800000E+00  1.00800000E+00  1.60000000E+01  1.00800000E+00  1.00800000E+00
  1.60000000E+01  1.00800000E+00  1.00800000E+00  1.60000000E+01  1.00800000E+00
  1.00800000E+00  1.60000000E+01  1.00800000E+00  1.00800000E+00  1.60000000E+01
  1.00800000E+00  1.00800000E+00  1.60000000E+01  1.00800000E+00  1.00800000E+00
  1.60000000E+01  1.00800000E+00  1.00800000E+00  1.60000000E+01  1.00800000E+00
  1.00800000E+00  1.60000000E+01  1.00800000E+00  1.00800000E+00  1.60000000E+01
  1.00800000E+00  1.00800000E+00  1.60000000E+01  1.00800000E+00  1.00800000E+00
  1.60000000E+01  1.00800000E+00  1.00800000E+00  1.60000000E+01  1.00800000E+00
  1.00800000E+00  1.60000000E+01  1.00800000E+00  1.00800000E+00  1.60000000E+01
  1.00800000E+00  1.00800000E+00  1.60000000E+01  1.00800000E+00  1.00800000E+00
  1.60000000E+01  1.00800000E+00  1.00800000E+00  1.60000000E+01  1.00800000E+00
  1.00800000E+00  1.60000000E+01  1.00800000E+00  1.00800000E+00  1.60000000E+01
  1.00800000E+00  1.00800000E+00  1.60000000E+01  1.00800000E+00  1.00800000E+00
  1.60000000E+01  1.00800000E+00  1.00800000E+00  1.60000000E+01  1.00800000E+00
  1.00800000E+00  1.60000000E+01  1.00800000E+00  1.00800000E+00  1.60000000E+01
  1.00800000E+00  1.00800000E+00  1.60000000E+01  1.00800000E+00  1.00800000E+00
  1.60000000E+01  1.00800000E+00  1.00800000E+00  1.60000000E+01  1.00800000E+00
  1.00800000E+00  1.60000000E+01  1.00800000E+00  1.00800000E+00  1.60000000E+01
  1.00800000E+00  1.00800000E+00  1.60000000E+01  1.00800000E+00  1.00800000E+00
  1.60000000E+01  1.00800000E+00  1.00800000E+00  1.60000000E+01  1.00800000E+00
  1.00800000E+00  1.60000000E+01  1.00800000E+00  1.00800000E+00  1.60000000E+01
  1.00800000E+00  1.00800000E+00  1.60000000E+01  1.00800000E+00  1.00800000E+00
  1.60000000E+01  1.00800000E+00  1.00800000E+00  1.60000000E+01  1.00800000E+00
  1.00800000E+00  1.60000000E+01  1.00800000E+00  1.00800000E+00  1.60000000E+01
  1.00800000E+00  1.00800000E+00  1.60000000E+01  1.00800000E+00  1.00800000E+00
  1.60000000E+01  1.00800000E+00  1.00800000E+00  1.60000000E+01  1.00800000E+00
  1.00800000E+00  1.60000000E+01  1.00800000E+00  1.00800000E+00  1.60000000E+01
  1.00800000E+00  1.00800000E+00  1.60000000E+01  1.00800000E+00  1.00800000E+00
  1.60000000E+01  1.00800000E+00  1.00800000E+00  1.60000000E+01  1.00800000E+00
  1.00800000E+00  1.60000000E+01  1.00800000E+00  1.00800000E+00  1.60000000E+01
  1.00800000E+00  1.00800000E+00  1.60000000E+01  1.00800000E+00  1.00800000E+00
  1.60000000E+01  1.00800000E+00  1.00800000E+00  1.60000000E+01  1.00800000E+00
  1.00800000E+00  1.60000000E+01  1.00800000E+00  1.00800000E+00  1.60000000E+01
  1.00800000E+00  1.00800000E+00  1.60000000E+01  1.00800000E+00  1.00800000E+00
  1.60000000E+01  1.00800000E+00  1.00800000E+00  1.60000000E+01  1.00800000E+00
  1.00800000E+00  1.60000000E+01  1.00800000E+00  1.00800000E+00  1.60000000E+01
  1.00800000E+00  1.00800000E+00  1.60000000E+01  1.00800000E+00  1.00800000E+00
  1.60000000E+01  1.00800000E+00  1.00800000E+00  1.60000000E+01  1.00800000E+00
  1.00800000E+00  1.60000000E+01  1.00800000E+00  1.00800000E+00  1.60000000E+01
  1.00800000E+00  1.00800000E+00  1.60000000E+01  1.00800000E+00  1.00800000E+00
  1.60000000E+01  1.00800000E+00  1.00800000E+00  1.60000000E+01  1.00800000E+00
  1.00800000E+00  1.60000000E+01  1.00800000E+00  1.00800000E+00  1.60000000E+01
  1.00800000E+00  1.00800000E+00  1.60000000E+01  1.00800000E+00  1.00800000E+00
  1.60000000E+01  1.00800000E+00  1.00800000E+00  1.60000000E+01  1.00800000E+00
  1.00800000E+00  1.60000000E+01  1.00800000E+00  1.00800000E+00  1.60000000E+01
  1.00800000E+00  1.00800000E+00  1.60000000E+01  1.00800000E+00  1.00800000E+00
  1.60000000E+01  1.00800000E+00  1.00800000E+00  1.60000000E+01  1.00800000E+00
  1.00800000E+00  1.60000000E+01  1.00800000E+00  1.00800000E+00  1.60000000E+01
  1.00800000E+00  1.00800000E+00  1.60000000E+01  1.00800000E+00  1.00800000E+00
  1.60000000E+01  1.00800000E+00  1.00800000E+00  1.60000000E+01  1.00800000E+00
  1.00800000E+00  1.60000000E+01  1.00800000E+00  1.00800000E+00  1.60000000E+01
  1.00800000E+00  1.00800000E+00  1.60000000E+01  1.00800000E+00  1.00800000E+00
  1.60000000E+01  1.00800000E+00  1.00800000E+00  1.60000000E+01  1.00800000E+00
  1.00800000E+00  1.60000000E+01  1.00800000E+00  1.00800000E+00  1.60000000E+01
  1.00800000E+00  1.00800000E+00  1.60000000E+01  1.00800000E+00  1.00800000E+00
  1.60000000E+01  1.00800000E+00  1.00800000E+00  1.60000000E+01  1.00800000E+00
  1.00800000E+00  1.60000000E+01  1.00800000E+00  1.00800000E+00  1.60000000E+01
  1.00800000E+00  1.00800000E+00  1.60000000E+01  1.00800000E+00  1.00800000E+00
  1.60000000E+01  1.00800000E+00  1.00800000E+00  1.60000000E+01  1.00800000E+00
  1.00800000E+00  1.60000000E+01  1.00800000E+00  1.00800000E+00  1.60000000E+01
  1.00800000E+00  1.00800000E+00  1.60000000E+01  1.00800000E+00  1.00800000E+00
  1.60000000E+01  1.00800000E+00  1.00800000E+00  1.60000000E+01  1.00800000E+00
  1.00800000E+00  1.60000000E+01  1.00800000E+00  1.00800000E+00  1.60000000E+01
  1.00800000E+00  1.00800000E+00  1.60000000E+01  1.00800000E+00  1.00800000E+00
  1.60000000E+01  1.00800000E+00  1.00800000E+00  1.60000000E+01  1.00800000E+00
  1.00800000E+00  1.60000000E+01  1.00800000E+00  1.00800000E+00  1.60000000E+01
  1.00800000E+00  1.00800000E+00  1.60000000E+01  1.00800000E+00  1.00800000E+00
  1.60000000E+01  1.00800000E+00  1.00800000E+00  1.60000000E+01  1.00800000E+00
  1.00800000E+00  1.60000000E+01  1.00800000E+00  1.00800000E+00  1.60000000E+01
  1.00800000E+00  1.00800000E+00  1.60000000E+01  1.00800000E+00  1.00800000E+00
  1.60000000E+01  1.00800000E+00  1.00800000E+00  1.60000000E+01  1.00800000E+00
  1.00800000E+00  1.60000000E+01  1.00800000E+00  1.00800000E+00  1.60000000E+01
  1.00800000E+00  1.00800000E+00  1.60000000E+01  1.00800000E+00  1.00800000E+00
  1.60000000E+01  1.00800000E+00  1.00800000E+00  1.60000000E+01  1.00800000E+00
  1.00800000E+00  1.60000000E+01  1.00800000E+00  1.00800000E+00  1.60000000E+01
  1.00800000E+00  1.00800000E+00  1.60000000E+01  1.00800000E+00  1.00800000E+00
  1.60000000E+01  1.00800000E+00  1.00800000E+00  1.60000000E+01  1.00800000E+00
  1.00800000E+00  1.60000000E+01  1.00800000E+00  1.00800000E+00  1.60000000E+01
  1.00800000E+00  1.00800000E+00  1.60000000E+01  1.00800000E+00  1.00800000E+00
  1.60000000E+01  1.00800000E+00  1.00800000E+00  1.60000000E+01  1.00800000E+00
  1.00800000E+00  1.60000000E+01  1.00800000E+00  1.00800000E+00  1.60000000E+01
  1.00800000E+00  1.00800000E+00  1.60000000E+01  1.00800000E+00  1.00800000E+00
  1.60000000E+01  1.00800000E+00  1.00800000E+00  1.60000000E+01  1.00800000E+00
  1.00800000E+00  1.60000000E+01  1.00800000E+00  1.00800000E+00  1.60000000E+01
  1.00800000E+00  1.00800000E+00  1.60000000E+01  1.00800000E+00  1.00800000E+00
  1.60000000E+01  1.00800000E+00  1.00800000E+00  1.60000000E+01  1.00800000E+00
  1.00800000E+00  1.60000000E+01  1.00800000E+00  1.00800000E+00  1.60000000E+01
  1.00800000E+00  1.00800000E+00  1.60000000E+01  1.00800000E+00  1.00800000E+00
  1.60000000E+01  1.00800000E+00  1.00800000E+00  1.60000000E+01  1.00800000E+00
  1.00800000E+00  1.60000000E+01  1.00800000E+00  1.00800000E+00  1.60000000E+01
  1.00800000E+00  1.00800000E+00  1.60000000E+01  1.00800000E+00  1.00800000E+00
  1.60000000E+01  1.00800000E+00  1.00800000E+00  1.60000000E+01  1.00800000E+00
  1.00800000E+00  1.60000000E+01  1.00800000E+00  1.00800000E+00  1.60000000E+01
  1.00800000E+00  1.00800000E+00  1.60000000E+01  1.00800000E+00  1.00800000E+00
  1.60000000E+01  1.00800000E+00  1.00800000E+00  1.60000000E+01  1.00800000E+00
  1.00800000E+00  1.60000000E+01  1.00800000E+00  1.00800000E+00  1.60000000E+01
  1.00800000E+00  1.00800000E+00  1.60000000E+01  1.00800000E+00  1.00800000E+00
  1.60000000E+01  1.00800000E+00  1.00800000E+00  1.60000000E+01  1.00800000E+00
  1.00800000E+00  1.60000000E+01  1.00800000E+00  1.00800000E+00  1.60000000E+01
  1.00800000E+00  1.00800000E+00  1.60000000E+01  1.00800000E+00  1.00800000E+00
  1.60000000E+01  1.00800000E+00  1.00800000E+00  1.60000000E+01  1.00800000E+00
  1.00800000E+00  1.60000000E+01  1.00800000E+00  1.00800000E+00  1.60000000E+01
  1.00800000E+00  1.00800000E+00  1.60000000E+01  1.00800000E+00  1.00800000E+00
  1.60000000E+01  1.00800000E+00  1.00800000E+00  1.60000000E+01  1.00800000E+00
  1.00800000E+00  1.60000000E+01  1.00800000E+00  1.00800000E+00  1.60000000E+01
  1.00800000E+00  1.00800000E+00  1.60000000E+01  1.00800000E+00  1.00800000E+00
  1.60000000E+01  1.00800000E+00  1.00800000E+00  1.60000000E+01  1.00800000E+00
  1.00800000E+00  1.60000000E+01  1.00800000E+00  1.00800000E+00  1.60000000E+01
  1.00800000E+00  1.00800000E+00  1.60000000E+01  1.00800000E+00  1.00800000E+00
  1.60000000E+01  1.00800000E+00  1.00800000E+00  1.60000000E+01  1.00800000E+00
  1.00800000E+00  1.60000000E+01  1.00800000E+00  1.00800000E+00  1.60000000E+01
  1.00800000E+00  1.00800000E+00  1.60000000E+01  1.00800000E+00  1.00800000E+00
  1.60000000E+01  1.00800000E+00  1.00800000E+00  1.60000000E+01  1.00800000E+00
  1.00800000E+00  1.60000000E+01  1.00800000E+00  1.00800000E+00  1.60000000E+01
  1.00800000E+00  1.00800000E+00  1.60000000E+01  1.00800000E+00  1.00800000E+00
  1.60000000E+01  1.00800000E+00  1.00800000E+00  1.60000000E+01  1.00800000E+00
  1.00800000E+00  1.60000000E+01  1.00800000E+00  1.00800000E+00  1.60000000E+01
  1.00800000E+00  1.00800000E+00  1.60000000E+01  1.00800000E+00  1.00800000E+00
  1.60000000E+01  1.00800000E+00  1.00800000E+00  1.60000000E+01  1.00800000E+00
  1.00800000E+00  1.60000000E+01  1.00800000E+00  1.00800000E+00  1.60000000E+01
  1.00800000E+00  1.00800000E+00  1.60000000E+01  1.00800000E+00  1.00800000E+00
  1.60000000E+01  1.00800000E+00  1.00800000E+00  1.60000000E+01  1.00800000E+00
  1.00800000E+00  1.60000000E+01  1.00800000E+00  1.00800000E+00  1.60000000E+01
  1.00800000E+00  1.00800000E+00  1.60000000E+01  1.00800000E+00  1.00800000E+00
  1.60000000E+01  1.00800000E+00  1.00800000E+00  1.60000000E+01  1.00800000E+00
  1.00800000E+00  1.60000000E+01  1.00800000E+00  1.00800000E+00  1.60000000E+01
  1.00800000E+00  1.00800000E+00  1.60000000E+01  1.00800000E+00  1.00800000E+00
  1.60000000E+01  1.00800000E+00  1.00800000E+00  1.60000000E+01  1.00800000E+00
  1.00800000E+00  1.60000000E+01  1.00800000E+00  1.00800000E+00  1.60000000E+01
  1.00800000E+00  1.00800000E+00  1.60000000E+01  1.00800000E+00  1.00800000E+00
  1.60000000E+01  1.00800000E+00  1.00800000E+00  1.60000000E+01  1.00800000E+00
  1.00800000E+00  1.60000000E+01  1.00800000E+00  1.00800000E+00  1.60000000E+01
  1.00800000E+00  1.00800000E+00  1.60000000E+01  1.00800000E+00  1.00800000E+00
  1.60000000E+01  1.00800000E+00  1.00800000E+00  1.60000000E+01  1.00800000E+00
  1.00800000E+00  1.60000000E+01  1.00800000E+00  1.00800000E+00  1.60000000E+01
  1.00800000E+00  1.00800000E+00  1.60000000E+01  1.00800000E+00  1.00800000E+00
  1.60000000E+01  1.00800000E+00  1.00800000E+00  1.60000000E+01  1.00800000E+00
  1.00800000E+00  1.60000000E+01  1.00800000E+00  1.00800000E+00  1.60000000E+01
  1.00800000E+00  1.00800000E+00  1.60000000E+01  1.00800000E+00  1.00800000E+00
  1.60000000E+01  1.00800000E+00  1.00800000E+00  1.60000000E+01  1.00800000E+00
  1.00800000E+00  1.60000000E+01  1.00800000E+00  1.00800000E+00  1.60000000E+01
  1.00800000E+00  1.00800000E+00  1.60000000E+01  1.00800000E+00  1.00800000E+00
  1.60000000E+01  1.00800000E+00  1.00800000E+00  1.60000000E+01  1.00800000E+00
  1.00800000E+00  1.60000000E+01  1.00800000E+00  1.00800000E+00  1.60000000E+01
  1.00800000E+00  1.00800000E+00  1.60000000E+01  1.00800000E+00  1.00800000E+00
  1.60000000E+01  1.00800000E+00  1.00800000E+00  1.60000000E+01  1.00800000E+00
  1.00800000E+00  1.60000000E+01  1.00800000E+00  1.00800000E+00  1.60000000E+01
  1.00800000E+00  1.00800000E+00  1.60000000E+01  1.00800000E+00  1.00800000E+00
  1.60000000E+01  1.00800000E+00  1.00800000E+00  1.60000000E+01  1.00800000E+00
  1.00800000E+00  1.60000000E+01  1.00800000E+00  1.00800000E+00  1.60000000E+01
  1.00800000E+00  1.00800000E+00  1.60000000E+01  1.00800000E+00  1.00800000E+00
  1.60000000E+01  1.00800000E+00  1.00800000E+00  1.60000000E+01  1.00800000E+00
  1.00800000E+00  1.60000000E+01  1.00800000E+00  1.00800000E+00  1.60000000E+01
  1.00800000E+00  1.00800000E+00  1.60000000E+01  1.00800000E+00  1.00800000E+00
  1.60000000E+01  1.00800000E+00  1.00800000E+00  1.60000000E+01  1.00800000E+00
  1.00800000E+00  1.60000000E+01  1.00800000E+00  1.00800000E+00  1.60000000E+01
  1.00800000E+00  1.00800000E+00  1.60000000E+01  1.00800000E+00  1.00800000E+00
  1.60000000E+01  1.00800000E+00  1.00800000E+00  1.60000000E+01  1.00800000E+00
  1.00800000E+00  1.60000000E+01  1.00800000E+00  1.00800000E+00  1.60000000E+01
  1.00800000E+00  1.00800000E+00  1.60000000E+01  1.00800000E+00  1.00800000E+00
  1.60000000E+01  1.00800000E+00  1.00800000E+00  1.60000000E+01  1.00800000E+00
  1.00800000E+00  1.60000000E+01  1.00800000E+00  1.00800000E+00  1.60000000E+01
  1.00800000E+00  1.00800000E+00  1.60000000E+01  1.00800000E+00  1.00800000E+00
  1.60000000E+01  1.00800000E+00  1.00800000E+00  1.60000000E+01  1.00800000E+00
  1.00800000E+00  1.60000000E+01  1.00800000E+00  1.00800000E+00  1.60000000E+01
  1.00800000E+00  1.00800000E+00  1.60000000E+01  1.00800000E+00  1.00800000E+00
  1.60000000E+01  1.00800000E+00  1.00800000E+00  1.60000000E+01  1.00800000E+00
  1.00800000E+00  1.60000000E+01  1.00800000E+00  1.00800000E+00  1.60000000E+01
  1.00800000E+00  1.00800000E+00  1.60000000E+01  1.00800000E+00  1.00800000E+00
  1.60000000E+01  1.00800000E+00  1.00800000E+00  1.60000000E+01  1.00800000E+00
  1.00800000E+00  1.60000000E+01  1.00800000E+00  1.00800000E+00  1.60000000E+01
  1.00800000E+00  1.00800000E+00  1.60000000E+01  1.00800000E+00  1.00800000E+00
  1.60000000E+01  1.00800000E+00  1.00800000E+00  1.60000000E+01  1.00800000E+00
  1.00800000E+00  1.60000000E+01  1.00800000E+00  1.00800000E+00  1.60000000E+01
  1.00800000E+00  1.00800000E+00  1.60000000E+01  1.00800000E+00  1.00800000E+00
  1.60000000E+01  1.00800000E+00  1.00800000E+00  1.60000000E+01  1.00800000E+00
  1.00800000E+00  1.60000000E+01  1.00800000E+00  1.00800000E+00  1.60000000E+01
  1.00800000E+00  1.00800000E+00  1.60000000E+01  1.00800000E+00  1.00800000E+00
  1.60000000E+01  1.00800000E+00  1.00800000E+00  1.60000000E+01  1.00800000E+00
  1.00800000E+00  1.60000000E+01  1.00800000E+00  1.00800000E+00  1.60000000E+01
  1.00800000E+00  1.00800000E+00  1.60000000E+01  1.00800000E+00  1.00800000E+00
  1.60000000E+01  1.00800000E+00  1.00800000E+00  1.60000000E+01  1.00800000E+00
  1.00800000E+00  1.60000000E+01  1.00800000E+00  1.00800000E+00  1.60000000E+01
  1.00800000E+00  1.00800000E+00  1.60000000E+01  1.00800000E+00  1.00800000E+00
  1.60000000E+01  1.00800000E+00  1.00800000E+00  1.60000000E+01  1.00800000E+00
  1.00800000E+00  1.60000000E+01  1.00800000E+00  1.00800000E+00  1.60000000E+01
  1.00800000E+00  1.00800000E+00  1.60000000E+01  1.00800000E+00  1.00800000E+00
  1.60000000E+01  1.00800000E+00  1.00800000E+00  1.60000000E+01  1.00800000E+00
  1.00800000E+00  1.60000000E+01  1.00800000E+00  1.00800000E+00  1.60000000E+01
  1.00800000E+00  1.00800000E+00  1.60000000E+01  1.00800000E+00  1.00800000E+00
  1.60000000E+01  1.00800000E+00  1.00800000E+00  1.60000000E+01  1.00800000E+00
  1.00800000E+00  1.60000000E+01  1.00800000E+00  1.00800000E+00  1.60000000E+01
  1.00800000E+00  1.00800000E+00  1.60000000E+01  1.00800000E+00  1.00800000E+00
  1.60000000E+01  1.00800000E+00  1.00800000E+00  1.60000000E+01  1.00800000E+00
  1.00800000E+00  1.60000000E+01  1.00800000E+00  1.00800000E+00  1.60000000E+01
  1.00800000E+00  1.00800000E+00  1.60000000E+01  1.00800000E+00  1.00800000E+00
  1.60000000E+01  1.00800000E+00  1.00800000E+00  1.60000000E+01  1.00800000E+00
  1.00800000E+00  1.60000000E+01  1.00800000E+00  1.00800000E+00  1.60000000E+01
  1.00800000E+00  1.00800000E+00  1.60000000E+01  1.00800000E+00  1.00800000E+00
  1.60000000E+01  1.00800000E+00  1.00800000E+00  1.60000000E+01  1.00800000E+00
  1.00800000E+00  1.60000000E+01  1.00800000E+00  1.00800000E+00  1.60000000E+01
  1.00800000E+00  1.00800000E+00  1.60000000E+01  1.00800000E+00  1.00800000E+00
  1.60000000E+01  1.00800000E+00  1.00800000E+00  1.60000000E+01  1.00800000E+00
  1.00800000E+00  1.60000000E+01  1.00800000E+00  1.00800000E+00  1.60000000E+01
  1.00800000E+00  1.00800000E+00  1.60000000E+01  1.00800000E+00  1.00800000E+00
  1.60000000E+01  1.00800000E+00  1.00800000E+00  1.60000000E+01  1.00800000E+00
  1.00800000E+00  1.60000000E+01  1.00800000E+00  1.00800000E+00  1.60000000E+01
  1.00800000E+00  1.00800000E+00  1.60000000E+01  1.00800000E+00  1.00800000E+00
  1.60000000E+01  1.00800000E+00  1.00800000E+00  1.60000000E+01  1.00800000E+00
  1.00800000E+00  1.60000000E+01  1.00800000E+00  1.00800000E+00  1.60000000E+01
  1.00800000E+00  1.00800000E+00  1.60000000E+01  1.00800000E+00  1.00800000E+00
  1.60000000E+01  1.00800000E+00  1.00800000E+00  1.60000000E+01  1.00800000E+00
  1.00800000E+00  1.60000000E+01  1.00800000E+00  1.00800000E+00  1.60000000E+01
  1.00800000E+00  1.00800000E+00  1.60000000E+01  1.00800000E+00  1.00800000E+00
  1.60000000E+01  1.00800000E+00  1.00800000E+00  1.60000000E+01  1.00800000E+00
  1.00800000E+00  1.60000000E+01  1.00800000E+00  1.00800000E+00  1.60000000E+01
  1.00800000E+00  1.00800000E+00  1.60000000E+01  1.00800000E+00  1.00800000E+00
  1.60000000E+01  1.00800000E+00  1.00800000E+00  1.60000000E+01  1.00800000E+00
  1.00800000E+00  1.60000000E+01  1.00800000E+00  1.00800000E+00  1.60000000E+01
  1.00800000E+00  1.00800000E+00  1.60000000E+01  1.00800000E+00  1.00800000E+00
  1.60000000E+01  1.00800000E+00  1.00800000E+00  1.60000000E+01  1.00800000E+00
  1.00800000E+00  1.60000000E+01  1.00800000E+00  1.00800000E+00  1.60000000E+01
  1.00800000E+00  1.00800000E+00  1.60000000E+01  1.00800000E+00  1.00800000E+00
  1.60000000E+01  1.00800000E+00  1.00800000E+00  1.60000000E+01  1.00800000E+00
  1.00800000E+00  1.60000000E+01  1.00800000E+00  1.00800000E+00  1.60000000E+01
  1.00800000E+00  1.00800000E+00  1.60000000E+01  1.00800000E+00  1.00800000E+00
  1.60000000E+01  1.00800000E+00  1.00800000E+00  1.60000000E+01  1.00800000E+00
  1.00800000E+00  1.60000000E+01  1.00800000E+00  1.00800000E+00  1.60000000E+01
  1.00800000E+00  1.00800000E+00  1.60000000E+01  1.00800000E+00  1.00800000E+00
  1.60000000E+01  1.00800000E+00  1.00800000E+00  1.60000000E+01  1.00800000E+00
  1.00800000E+00  1.60000000E+01  1.00800000E+00  1.00800000E+00  1.60000000E+01
  1.00800000E+00  1.00800000E+00  1.60000000E+01  1.00800000E+00  1.00800000E+00
  1.60000000E+01  1.00800000E+00  1.00800000E+00  1.60000000E+01  1.00800000E+00
  1.00800000E+00  1.60000000E+01  1.00800000E+00  1.00800000E+00  1.60000000E+01
  1.00800000E+00  1.00800000E+00  1.60000000E+01  1.00800000E+00  1.00800000E+00
  1.60000000E+01  1.00800000E+00  1.00800000E+00  1.60000000E+01  1.00800000E+00
  1.00800000E+00  1.60000000E+01  1.00800000E+00  1.00800000E+00  1.60000000E+01
  1.00800000E+00  1.00800000E+00  1.60000000E+01  1.00800000E+00  1.00800000E+00
  1.60000000E+01  1.00800000E+00  1.00800000E+00  1.60000000E+01  1.00800000E+00
  1.00800000E+00  1.60000000E+01  1.00800000E+00  1.00800000E+00  1.60000000E+01
  1.00800000E+00  1.00800000E+00  1.60000000E+01  1.00800000E+00  1.00800000E+00
  1.60000000E+01  1.00800000E+00  1.00800000E+00  1.60000000E+01  1.00800000E+00
  1.00800000E+00  1.60000000E+01  1.00800000E+00  1.00800000E+00  1.60000000E+01
  1.00800000E+00  1.00800000E+00  1.60000000E+01  1.00800000E+00  1.00800000E+00
  1.60000000E+01  1.00800000E+00  1.00800000E+00  1.60000000E+01  1.00800000E+00
  1.00800000E+00  1.60000000E+01  1.00800000E+00  1.00800000E+00  1.60000000E+01
  1.00800000E+00  1.00800000E+00  1.60000000E+01  1.00800000E+00  1.00800000E+00
  1.60000000E+01  1.00800000E+00  1.00800000E+00  1.60000000E+01  1.00800000E+00
  1.00800000E+00  1.60000000E+01  1.00800000E+00  1.00800000E+00  1.60000000E+01
  1.00800000E+00  1.00800000E+00  1.60000000E+01  1.00800000E+00  1.00800000E+00
  1.60000000E+01  1.00800000E+00  1.00800000E+00  1.60000000E+01  1.00800000E+00
  1.00800000E+00  1.60000000E+01  1.00800000E+00  1.00800000E+00  1.60000000E+01
  1.00800000E+00  1.00800000E+00  1.60000000E+01  1.00800000E+00  1.00800000E+00
  1.60000000E+01  1.00800000E+00  1.00800000E+00  1.60000000E+01  1.00800000E+00
  1.00800000E+00  1.60000000E+01  1.00800000E+00  1.00800000E+00  1.60000000E+01
  1.00800000E+00  1.00800000E+00  1.60000000E+01  1.00800000E+00  1.00800000E+00
  1.60000000E+01  1.00800000E+00  1.00800000E+00  1.60000000E+01  1.00800000E+00
  1.00800000E+00  1.60000000E+01  1.00800000E+00  1.00800000E+00  1.60000000E+01
  1.00800000E+00  1.00800000E+00  1.60000000E+01  1.00800000E+00  1.00800000E+00
  1.60000000E+01  1.00800000E+00  1.00800000E+00  1.60000000E+01  1.00800000E+00
  1.00800000E+00  1.60000000E+01  1.00800000E+00  1.00800000E+00  1.60000000E+01
  1.00800000E+00  1.00800000E+00  1.60000000E+01  1.00800000E+00  1.00800000E+00
  1.60000000E+01  1.00800000E+00  1.00800000E+00  1.60000000E+01  1.00800000E+00
  1.00800000E+00  1.60000000E+01  1.00800000E+00  1.00800000E+00  1.60000000E+01
  1.00800000E+00  1.00800000E+00  1.60000000E+01  1.00800000E+00  1.00800000E+00
  1.60000000E+01  1.00800000E+00  1.00800000E+00  1.60000000E+01  1.00800000E+00
  1.00800000E+00  1.60000000E+01  1.00800000E+00  1.00800000E+00  1.60000000E+01
  1.00800000E+00  1.00800000E+00  1.60000000E+01  1.00800000E+00  1.00800000E+00
  1.60000000E+01  1.00800000E+00  1.00800000E+00  1.60000000E+01  1.00800000E+00
  1.00800000E+00  1.60000000E+01  1.00800000E+00  1.00800000E+00  1.60000000E+01
  1.00800000E+00  1.00800000E+00  1.60000000E+01  1.00800000E+00  1.00800000E+00
  1.60000000E+01  1.00800000E+00  1.00800000E+00  1.60000000E+01  1.00800000E+00
  1.00800000E+00  1.60000000E+01  1.00800000E+00  1.00800000E+00  1.60000000E+01
  1.00800000E+00  1.00800000E+00  1.60000000E+01  1.00800000E+00  1.00800000E+00
  1.60000000E+01  1.00800000E+00  1.00800000E+00  1.60000000E+01  1.00800000E+00
  1.00800000E+00  1.60000000E+01  1.00800000E+00  1.00800000E+00  1.60000000E+01
  1.00800000E+00  1.00800000E+00  1.60000000E+01  1.00800000E+00  1.00800000E+00
  1.60000000E+01  1.00800000E+00  1.00800000E+00  1.60000000E+01  1.00800000E+00
  1.00800000E+00  1.60000000E+01  1.00800000E+00  1.00800000E+00  1.60000000E+01
  1.00800000E+00  1.00800000E+00  1.60000000E+01  1.00800000E+00  1.00800000E+00
  1.60000000E+01  1.00800000E+00  1.00800000E+00  1.60000000E+01  1.00800000E+00
  1.00800000E+00  1.60000000E+01  1.00800000E+00  1.00800000E+00  1.60000000E+01
  1.00800000E+00  1.00800000E+00  1.60000000E+01  1.00800000E+00  1.00800000E+00
  1.60000000E+01  1.00800000E+00  1.00800000E+00  1.60000000E+01  1.00800000E+00
  1.00800000E+00  1.60000000E+01  1.00800000E+00  1.00800000E+00  1.60000000E+01
  1.00800000E+00  1.00800000E+00  1.60000000E+01  1.00800000E+00  1.00800000E+00
  1.60000000E+01  1.00800000E+00  1.00800000E+00  1.60000000E+01  1.00800000E+00
  1.00800000E+00  1.60000000E+01  1.00800000E+00  1.00800000E+00  1.60000000E+01
  1.00800000E+00  1.00800000E+00  1.60000000E+01  1.00800000E+00  1.00800000E+00
  1.60000000E+01  1.00800000E+00  1.00800000E+00  1.60000000E+01  1.00800000E+00
  1.00800000E+00  1.60000000E+01  1.00800000E+00  1.00800000E+00  1.60000000E+01
  1.00800000E+00  1.00800000E+00  1.60000000E+01  1.00800000E+00  1.00800000E+00
  1.60000000E+01  1.00800000E+00  1.00800000E+00  1.60000000E+01  1.00800000E+00
  1.00800000E+00  1.60000000E+01  1.00800000E+00  1.00800000E+00  1.60000000E+01
  1.00800000E+00  1.00800000E+00  1.60000000E+01  1.00800000E+00  1.00800000E+00
  1.60000000E+01  1.00800000E+00  1.00800000E+00  1.60000000E+01  1.00800000E+00
  1.00800000E+00  1.60000000E+01  1.00800000E+00  1.00800000E+00  1.60000000E+01
  1.00800000E+00  1.00800000E+00  1.60000000E+01  1.00800000E+00  1.00800000E+00
  1.60000000E+01  1.00800000E+00  1.00800000E+00  1.60000000E+01  1.00800000E+00
  1.00800000E+00  1.60000000E+01  1.00800000E+00  1.00800000E+00  1.60000000E+01
  1.00800000E+00  1.00800000E+00  1.60000000E+01  1.00800000E+00  1.00800000E+00
  1.60000000E+01  1.00800000E+00  1.00800000E+00  1.60000000E+01  1.00800000E+00
  1.00800000E+00  1.60000000E+01  1.00800000E+00  1.00800000E+00  1.60000000E+01
  1.00800000E+00  1.00800000E+00  1.60000000E+01  1.00800000E+00  1.00800000E+00
  1.60000000E+01  1.00800000E+00  1.00800000E+00  1.60000000E+01  1.00800000E+00
  1.00800000E+00  1.60000000E+01  1.00800000E+00  1.00800000E+00  1.60000000E+01
  1.00800000E+00  1.00800000E+00  1.60000000E+01  1.00800000E+00  1.00800000E+00
  1.60000000E+01  1.00800000E+00  1.00800000E+00  1.60000000E+01  1.00800000E+00
  1.00800000E+00  1.60000000E+01  1.00800000E+00  1.00800000E+00  1.60000000E+01
  1.00800000E+00  1.00800000E+00  1.60000000E+01  1.00800000E+00  1.00800000E+00
  1.60000000E+01  1.00800000E+00  1.00800000E+00  1.60000000E+01  1.00800000E+00
  1.00800000E+00  1.60000000E+01  1.00800000E+00  1.00800000E+00  1.60000000E+01
  1.00800000E+00  1.00800000E+00  1.60000000E+01  1.00800000E+00  1.00800000E+00
  1.60000000E+01  1.00800000E+00  1.00800000E+00  1.60000000E+01  1.00800000E+00
  1.00800000E+00  1.60000000E+01  1.00800000E+00  1.00800000E+00  1.60000000E+01
  1.00800000E+00  1.00800000E+00  1.60000000E+01  1.00800000E+00  1.00800000E+00
  1.60000000E+01  1.00800000E+00  1.00800000E+00  1.60000000E+01  1.00800000E+00
  1.00800000E+00  1.60000000E+01  1.00800000E+00  1.00800000E+00  1.60000000E+01
  1.00800000E+00  1.00800000E+00  1.60000000E+01  1.00800000E+00  1.00800000E+00
  1.60000000E+01  1.00800000E+00  1.00800000E+00  1.60000000E+01  1.00800000E+00
  1.00800000E+00  1.60000000E+01  1.00800000E+00  1.00800000E+00  1.60000000E+01
  1.00800000E+00  1.00800000E+00  1.60000000E+01  1.00800000E+00  1.00800000E+00
  1.60000000E+01  1.00800000E+00  1.00800000E+00  1.60000000E+01  1.00800000E+00
  1.00800000E+00  1.60000000E+01  1.00800000E+00  1.00800000E+00  1.60000000E+01
  1.00800000E+00  1.00800000E+00  1.60000000E+01  1.00800000E+00  1.00800000E+00
  1.60000000E+01  1.00800000E+00  1.00800000E+00  1.60000000E+01  1.00800000E+00
  1.00800000E+00  1.60000000E+01  1.00800000E+00  1.00800000E+00  1.60000000E+01
  1.00800000E+00  1.00800000E+00  1.60000000E+01  1.00800000E+00  1.00800000E+00
  1.60000000E+01  1.00800000E+00  1.00800000E+00  1.60000000E+01  1.00800000E+00
  1.00800000E+00  1.60000000E+01  1.00800000E+00  1.00800000E+00  1.60000000E+01
  1.00800000E+00  1.00800000E+00  1.60000000E+01  1.00800000E+00  1.00800000E+00
  1.60000000E+01  1.00800000E+00  1.00800000E+00  1.60000000E+01  1.00800000E+00
  1.00800000E+00  1.60000000E+01  1.00800000E+00  1.00800000E+00  1.60000000E+01
  1.00800000E+00  1.00800000E+00  1.60000000E+01  1.00800000E+00  1.00800000E+00
  1.60000000E+01  1.00800000E+00  1.00800000E+00  1.60000000E+01  1.00800000E+00
  1.00800000E+00  1.60000000E+01  1.00800000E+00  1.00800000E+00  1.60000000E+01
  1.00800000E+00  1.00800000E+00  1.60000000E+01  1.00800000E+00  1.00800000E+00
  1.60000000E+01  1.00800000E+00  1.00800000E+00  1.60000000E+01  1.00800000E+00
  1.00800000E+00  1.60000000E+01  1.00800000E+00  1.00800000E+00  1.60000000E+01
  1.00800000E+00  1.00800000E+00  1.60000000E+01  1.00800000E+00  1.00800000E+00
  1.60000000E+01  1.00800000E+00  1.00800000E+00  1.60000000E+01  1.00800000E+00
  1.00800000E+00  1.60000000E+01  1.00800000E+00  1.00800000E+00  1.60000000E+01
  1.00800000E+00  1.00800000E+00  1.60000000E+01  1.00800000E+00  1.00800000E+00
  1.60000000E+01  1.00800000E+00  1.00800000E+00  1.60000000E+01  1.00800000E+00
  1.00800000E+00  1.60000000E+01  1.00800000E+00  1.00800000E+00  1.60000000E+01
  1.00800000E+00  1.00800000E+00  1.60000000E+01  1.00800000E+00  1.00800000E+00
  1.60000000E+01  1.00800000E+00  1.00800000E+00  1.60000000E+01  1.00800000E+00
  1.00800000E+00  1.60000000E+01  1.00800000E+00  1.00800000E+00  1.60000000E+01
  1.00800000E+00  1.00800000E+00  1.60000000E+01  1.00800000E+00  1.00800000E+00
  1.60000000E+01  1.00800000E+00  1.00800000E+00  1.60000000E+01  1.00800000E+00
  1.00800000E+00  1.60000000E+01  1.00800000E+00  1.00800000E+00  1.60000000E+01
  1.00800000E+00  1.00800000E+00  1.60000000E+01  1.00800000E+00  1.00800000E+00
  1.60000000E+01  1.00800000E+00  1.00800000E+00  1.60000000E+01  1.00800000E+00
  1.00800000E+00  1.60000000E+01  1.00800000E+00  1.00800000E+00  1.60000000E+01
  1.00800000E+00  1.00800000E+00  1.60000000E+01  1.00800000E+00  1.00800000E+00
  1.60000000E+01  1.00800000E+00  1.00800000E+00  1.60000000E+01  1.00800000E+00
  1.00800000E+00  1.60000000E+01  1.00800000E+00  1.00800000E+00  1.60000000E+01
  1.00800000E+00  1.00800000E+00  1.60000000E+01  1.00800000E+00  1.00800000E+00
  1.60000000E+01  1.00800000E+00  1.00800000E+00  1.60000000E+01  1.00800000E+00
  1.00800000E+00  1.60000000E+01  1.00800000E+00  1.00800000E+00  1.60000000E+01
  1.00800000E+00  1.00800000E+00  1.60000000E+01  1.00800000E+00  1.00800000E+00
  1.60000000E+01  1.00800000E+00  1.00800000E+00  1.60000000E+01  1.00800000E+00
  1.00800000E+00  1.60000000E+01  1.00800000E+00  1.00800000E+00  1.60000000E+01
  1.00800000E+00  1.00800000E+00  1.60000000E+01  1.00800000E+00  1.00800000E+00
  1.60000000E+01  1.00800000E+00  1.00800000E+00  1.60000000E+01  1.00800000E+00
  1.00800000E+00  1.60000000E+01  1.00800000E+00  1.00800000E+00  1.60000000E+01
  1.00800000E+00  1.00800000E+00  1.60000000E+01  1.00800000E+00  1.00800000E+00
  1.60000000E+01  1.00800000E+00  1.00800000E+00  1.60000000E+01  1.00800000E+00
  1.00800000E+00  1.60000000E+01  1.00800000E+00  1.00800000E+00  1.60000000E+01
  1.00800000E+00  1.00800000E+00  1.60000000E+01  1.00800000E+00  1.00800000E+00
  1.60000000E+01  1.00800000E+00  1.00800000E+00  1.60000000E+01  1.00800000E+00
  1.00800000E+00  1.60000000E+01  1.00800000E+00  1.00800000E+00  1.60000000E+01
  1.00800000E+00  1.00800000E+00  1.60000000E+01  1.00800000E+00  1.00800000E+00
  1.60000000E+01  1.00800000E+00  1.00800000E+00  1.60000000E+01  1.00800000E+00
  1.00800000E+00  1.60000000E+01  1.00800000E+00  1.00800000E+00  1.60000000E+01
  1.00800000E+00  1.00800000E+00  1.60000000E+01  1.00800000E+00  1.00800000E+00
  1.60000000E+01  1.00800000E+00  1.00800000E+00  1.60000000E+01  1.00800000E+00
  1.00800000E+00  1.60000000E+01  1.00800000E+00  1.00800000E+00  1.60000000E+01
  1.00800000E+00  1.00800000E+00  1.60000000E+01  1.00800000E+00  1.00800000E+00
  1.60000000E+01  1.00800000E+00  1.00800000E+00  1.60000000E+01  1.00800000E+00
  1.00800000E+00  1.60000000E+01  1.00800000E+00  1.00800000E+00  1.60000000E+01
  1.00800000E+00  1.00800000E+00  1.60000000E+01  1.00800000E+00  1.00800000E+00
  1.60000000E+01  1.00800000E+00  1.00800000E+00  1.60000000E+01  1.00800000E+00
  1.00800000E+00  1.60000000E+01  1.00800000E+00  1.00800000E+00  1.60000000E+01
  1.00800000E+00  1.00800000E+00  1.60000000E+01  1.00800000E+00  1.00800000E+00
  1.60000000E+01  1.00800000E+00  1.00800000E+00  1.60000000E+01  1.00800000E+00
  1.00800000E+00  1.60000000E+01  1.00800000E+00  1.00800000E+00  1.60000000E+01
  1.00800000E+00  1.00800000E+00  1.60000000E+01  1.00800000E+00  1.00800000E+00
  1.60000000E+01  1.00800000E+00  1.00800000E+00  1.60000000E+01  1.00800000E+00
  1.00800000E+00  1.60000000E+01  1.00800000E+00  1.00800000E+00  1.60000000E+01
  1.00800000E+00  1.00800000E+00  1.60000000E+01  1.00800000E+00  1.00800000E+00
  1.60000000E+01  1.00800000E+00  1.00800000E+00  1.60000000E+01  1.00800000E+00
  1.00800000E+00  1.60000000E+01  1.00800000E+00  1.00800000E+00  1.60000000E+01
  1.00800000E+00  1.00800000E+00  1.60000000E+01  1.00800000E+00  1.00800000E+00
  1.60000000E+01  1.00800000E+00  1.00800000E+00  1.60000000E+01  1.00800000E+00
  1.00800000E+00  1.60000000E+01  1.00800000E+00  1.00800000E+00  1.60000000E+01
  1.00800000E+00  1.00800000E+00  1.60000000E+01  1.00800000E+00  1.00800000E+00
  1.60000000E+01  1.00800000E+00  1.00800000E+00  1.60000000E+01  1.00800000E+00
  1.00800000E+00  1.60000000E+01  1.00800000E+00  1.00800000E+00  1.60000000E+01
  1.00800000E+00  1.00800000E+00  1.60000000E+01  1.00800000E+00  1.00800000E+00
  1.60000000E+01  1.00800000E+00  1.00800000E+00  1.60000000E+01  1.00800000E+00
  1.00800000E+00  1.60000000E+01  1.00800000E+00  1.00800000E+00  1.60000000E+01
  1.00800000E+00  1.00800000E+00  1.60000000E+01  1.00800000E+00  1.00800000E+00
  1.60000000E+01  1.00800000E+00  1.00800000E+00  1.60000000E+01  1.00800000E+00
  1.00800000E+00  1.60000000E+01  1.00800000E+00  1.00800000E+00  1.60000000E+01
  1.00800000E+00  1.00800000E+00  1.60000000E+01  1.00800000E+00  1.00800000E+00
  1.60000000E+01  1.00800000E+00  1.00800000E+00  1.60000000E+01  1.00800000E+00
  1.00800000E+00  1.60000000E+01  1.00800000E+00  1.00800000E+00  1.60000000E+01
  1.00800000E+00  1.00800000E+00  1.60000000E+01  1.00800000E+00  1.00800000E+00
  1.60000000E+01  1.00800000E+00  1.00800000E+00  1.60000000E+01  1.00800000E+00
  1.00800000E+00  1.60000000E+01  1.00800000E+00  1.00800000E+00  1.60000000E+01
  1.00800000E+00  1.00800000E+00  1.60000000E+01  1.00800000E+00  1.00800000E+00
  1.60000000E+01  1.00800000E+00  1.00800000E+00  1.60000000E+01  1.00800000E+00
  1.00800000E+00  1.60000000E+01  1.00800000E+00  1.00800000E+00  1.60000000E+01
  1.00800000E+00  1.00800000E+00  1.60000000E+01  1.00800000E+00  1.00800000E+00
  1.60000000E+01  1.00800000E+00  1.00800000E+00  1.60000000E+01  1.00800000E+00
  1.00800000E+00  1.60000000E+01  1.00800000E+00  1.00800000E+00  1.60000000E+01
  1.00800000E+00  1.00800000E+00  1.60000000E+01  1.00800000E+00  1.00800000E+00
  1.60000000E+01  1.00800000E+00  1.00800000E+00  1.60000000E+01  1.00800000E+00
  1.00800000E+00  1.60000000E+01  1.00800000E+00  1.00800000E+00  1.60000000E+01
  1.00800000E+00  1.00800000E+00  1.60000000E+01  1.00800000E+00  1.00800000E+00
  1.60000000E+01  1.00800000E+00  1.00800000E+00  1.60000000E+01  1.00800000E+00
  1.00800000E+00  1.60000000E+01  1.00800000E+00  1.00800000E+00  1.60000000E+01
  1.00800000E+00  1.00800000E+00  1.60000000E+01  1.00800000E+00  1.00800000E+00
  1.60000000E+01  1.00800000E+00  1.00800000E+00  1.60000000E+01  1.00800000E+00
  1.00800000E+00  1.60000000E+01  1.00800000E+00  1.00800000E+00  1.60000000E+01
  1.00800000E+00  1.00800000E+00  1.60000000E+01  1.00800000E+00  1.00800000E+00
  1.60000000E+01  1.00800000E+00  1.00800000E+00  1.60000000E+01  1.00800000E+00
  1.00800000E+00  1.60000000E+01  1.00800000E+00  1.00800000E+00  1.60000000E+01
  1.00800000E+00  1.00800000E+00  1.60000000E+01  1.00800000E+00  1.00800000E+00
  1.60000000E+01  1.00800000E+00  1.00800000E+00  1.60000000E+01  1.00800000E+00
  1.00800000E+00  1.60000000E+01  1.00800000E+00  1.00800000E+00  1.60000000E+01
  1.00800000E+00  1.00800000E+00  1.60000000E+01  1.00800000E+00  1.00800000E+00
  1.60000000E+01  1.00800000E+00  1.00800000E+00  1.60000000E+01  1.00800000E+00
  1.00800000E+00  1.60000000E+01  1.00800000E+00  1.00800000E+00  1.60000000E+01
  1.00800000E+00  1.00800000E+00  1.60000000E+01  1.00800000E+00  1.00800000E+00
  1.60000000E+01  1.00800000E+00  1.00800000E+00  1.60000000E+01  1.00800000E+00
  1.00800000E+00  1.60000000E+01  1.00800000E+00  1.00800000E+00  1.60000000E+01
  1.00800000E+00  1.00800000E+00  1.60000000E+01  1.00800000E+00  1.00800000E+00
  1.60000000E+01  1.00800000E+00  1.00800000E+00  1.60000000E+01  1.00800000E+00
  1.00800000E+00  1.60000000E+01  1.00800000E+00  1.00800000E+00  1.60000000E+01
  1.00800000E+00  1.00800000E+00  1.60000000E+01  1.00800000E+00  1.00800000E+00
  1.60000000E+01  1.00800000E+00  1.00800000E+00  1.60000000E+01  1.00800000E+00
  1.00800000E+00  1.60000000E+01  1.00800000E+00  1.00800000E+00  1.60000000E+01
  1.00800000E+00  1.00800000E+00  1.60000000E+01  1.00800000E+00  1.00800000E+00
  1.60000000E+01  1.00800000E+00  1.00800000E+00  1.60000000E+01  1.00800000E+00
  1.00800000E+00  1.60000000E+01  1.00800000E+00  1.00800000E+00  1.60000000E+01
  1.00800000E+00  1.00800000E+00  1.60000000E+01  1.00800000E+00  1.00800000E+00
  1.60000000E+01  1.00800000E+00  1.00800000E+00  1.60000000E+01  1.00800000E+00
  1.00800000E+00  1.60000000E+01  1.00800000E+00  1.00800000E+00  1.60000000E+01
  1.00800000E+00  1.00800000E+00  1.60000000E+01  1.00800000E+00  1.00800000E+00
  1.60000000E+01  1.00800000E+00  1.00800000E+00  1.60000000E+01  1.00800000E+00
  1.00800000E+00  1.60000000E+01  1.00800000E+00  1.00800000E+00  1.60000000E+01
  1.00800000E+00  1.00800000E+00  1.60000000E+01  1.00800000E+00  1.00800000E+00
  1.60000000E+01  1.00800000E+00  1.00800000E+00  1.60000000E+01  1.00800000E+00
  1.00800000E+00  1.60000000E+01  1.00800000E+00  1.00800000E+00  1.60000000E+01
  1.00800000E+00  1.00800000E+00  1.60000000E+01  1.00800000E+00  1.00800000E+00
  1.60000000E+01  1.00800000E+00  1.00800000E+00  1.60000000E+01  1.00800000E+00
  1.00800000E+00  1.60000000E+01  1.00800000E+00  1.00800000E+00  1.60000000E+01
  1.00800000E+00  1.00800000E+00  1.60000000E+01  1.00800000E+00  1.00800000E+00
  1.60000000E+01  1.00800000E+00  1.00800000E+00  1.60000000E+01  1.00800000E+00
  1.00800000E+00  1.60000000E+01  1.00800000E+00  1.00800000E+00  1.60000000E+01
  1.00800000E+00  1.00800000E+00  1.60000000E+01  1.00800000E+00  1.00800000E+00
  1.60000000E+01  1.00800000E+00  1.00800000E+00  1.60000000E+01  1.00800000E+00
  1.00800000E+00  1.60000000E+01  1.00800000E+00  1.00800000E+00  1.60000000E+01
  1.00800000E+00  1.00800000E+00  1.60000000E+01  1.00800000E+00  1.00800000E+00
  1.60000000E+01  1.00800000E+00  1.00800000E+00  1.60000000E+01  1.00800000E+00
  1.00800000E+00  1.60000000E+01  1.00800000E+00  1.00800000E+00  1.60000000E+01
  1.00800000E+00  1.00800000E+00  1.60000000E+01  1.00800000E+00  1.00800000E+00
  1.60000000E+01  1.00800000E+00  1.00800000E+00  1.60000000E+01  1.00800000E+00
  1.00800000E+00  1.60000000E+01  1.00800000E+00  1.00800000E+00  1.60000000E+01
  1.00800000E+00  1.00800000E+00  1.60000000E+01  1.00800000E+00  1.00800000E+00
  1.60000000E+01  1.00800000E+00  1.00800000E+00  1.60000000E+01  1.00800000E+00
  1.00800000E+00  1.60000000E+01  1.00800000E+00  1.00800000E+00  1.60000000E+01
  1.00800000E+00  1.00800000E+00  1.60000000E+01  1.00800000E+00  1.00800000E+00
  1.60000000E+01  1.00800000E+00  1.00800000E+00  1.60000000E+01  1.00800000E+00
  1.00800000E+00  1.60000000E+01  1.00800000E+00  1.00800000E+00  1.60000000E+01
  1.00800000E+00  1.00800000E+00  1.60000000E+01  1.00800000E+00  1.00800000E+00
  1.60000000E+01  1.00800000E+00  1.00800000E+00  1.60000000E+01  1.00800000E+00
  1.00800000E+00  1.60000000E+01  1.00800000E+00  1.00800000E+00  1.60000000E+01
  1.00800000E+00  1.00800000E+00  1.60000000E+01  1.00800000E+00  1.00800000E+00
  1.60000000E+01  1.00800000E+00  1.00800000E+00  1.60000000E+01  1.00800000E+00
  1.00800000E+00  1.60000000E+01  1.00800000E+00  1.00800000E+00  1.60000000E+01
  1.00800000E+00  1.00800000E+00  1.60000000E+01  1.00800000E+00  1.00800000E+00
  1.60000000E+01  1.00800000E+00  1.00800000E+00  1.60000000E+01  1.00800000E+00
  1.00800000E+00  1.60000000E+01  1.00800000E+00  1.00800000E+00  1.60000000E+01
  1.00800000E+00  1.00800000E+00  1.60000000E+01  1.00800000E+00  1.00800000E+00
  1.60000000E+01  1.00800000E+00  1.00800000E+00  1.60000000E+01  1.00800000E+00
  1.00800000E+00  1.60000000E+01  1.00800000E+00  1.00800000E+00  1.60000000E+01
  1.00800000E+00  1.00800000E+00  1.60000000E+01  1.00800000E+00  1.00800000E+00
  1.60000000E+01  1.00800000E+00  1.00800000E+00  1.60000000E+01  1.00800000E+00
  1.00800000E+00  1.60000000E+01  1.00800000E+00  1.00800000E+00  1.60000000E+01
  1.00800000E+00  1.00800000E+00  1.60000000E+01  1.00800000E+00  1.00800000E+00
  1.60000000E+01  1.00800000E+00  1.00800000E+00  1.60000000E+01  1.00800000E+00
  1.00800000E+00  1.60000000E+01  1.00800000E+00  1.00800000E+00  1.60000000E+01
  1.00800000E+00  1.00800000E+00  1.60000000E+01  1.00800000E+00  1.00800000E+00
  1.60000000E+01  1.00800000E+00  1.00800000E+00  1.60000000E+01  1.00800000E+00
  1.00800000E+00  1.60000000E+01  1.00800000E+00  1.00800000E+00  1.60000000E+01
  1.00800000E+00  1.00800000E+00  1.60000000E+01  1.00800000E+00  1.00800000E+00
  1.60000000E+01  1.00800000E+00  1.00800000E+00  1.60000000E+01  1.00800000E+00
  1.00800000E+00  1.60000000E+01  1.00800000E+00  1.00800000E+00  1.60000000E+01
  1.00800000E+00  1.00800000E+00  1.60000000E+01  1.00800000E+00  1.00800000E+00
  1.60000000E+01  1.00800000E+00  1.00800000E+00  1.60000000E+01  1.00800000E+00
  1.00800000E+00  1.60000000E+01  1.00800000E+00  1.00800000E+00  1.60000000E+01
  1.00800000E+00  1.00800000E+00  1.60000000E+01  1.00800000E+00  1.00800000E+00
  1.60000000E+01  1.00800000E+00  1.00800000E+00  1.60000000E+01  1.00800000E+00
  1.00800000E+00  1.60000000E+01  1.00800000E+00  1.00800000E+00  1.60000000E+01
  1.00800000E+00  1.00800000E+00  1.60000000E+01  1.00800000E+00  1.00800000E+00
  1.60000000E+01  1.00800000E+00  1.00800000E+00  1.60000000E+01  1.00800000E+00
  1.00800000E+00  1.60000000E+01  1.00800000E+00  1.00800000E+00  1.60000000E+01
  1.00800000E+00  1.00800000E+00  1.60000000E+01  1.00800000E+00  1.00800000E+00
  1.60000000E+01  1.00800000E+00  1.00800000E+00  1.60000000E+01  1.00800000E+00
  1.00800000E+00  1.60000000E+01  1.00800000E+00  1.00800000E+00  1.60000000E+01
  1.00800000E+00  1.00800000E+00  1.60000000E+01  1.00800000E+00  1.00800000E+00
  1.60000000E+01  1.00800000E+00  1.00800000E+00  1.60000000E+01  1.00800000E+00
  1.00800000E+00  1.60000000E+01  1.00800000E+00  1.00800000E+00  1.60000000E+01
  1.00800000E+00  1.00800000E+00  1.60000000E+01  1.00800000E+00  1.00800000E+00
  1.60000000E+01  1.00800000E+00  1.00800000E+00  1.60000000E+01  1.00800000E+00
  1.00800000E+00  1.60000000E+01  1.00800000E+00  1.00800000E+00  1.60000000E+01
  1.00800000E+00  1.00800000E+00  1.60000000E+01  1.00800000E+00  1.00800000E+00
  1.60000000E+01  1.00800000E+00  1.00800000E+00  1.60000000E+01  1.00800000E+00
  1.00800000E+00  1.60000000E+01  1.00800000E+00  1.00800000E+00  1.60000000E+01
  1.00800000E+00  1.00800000E+00  1.60000000E+01  1.00800000E+00  1.00800000E+00
  1.60000000E+01  1.00800000E+00  1.00800000E+00  1.60000000E+01  1.00800000E+00
  1.00800000E+00  1.60000000E+01  1.00800000E+00  1.00800000E+00  1.60000000E+01
  1.00800000E+00  1.00800000E+00  1.60000000E+01  1.00800000E+00  1.00800000E+00
  1.60000000E+01  1.00800000E+00  1.00800000E+00  1.60000000E+01  1.00800000E+00
  1.00800000E+00  1.60000000E+01  1.00800000E+00  1.00800000E+00  1.60000000E+01
  1.00800000E+00  1.00800000E+00  1.60000000E+01  1.00800000E+00  1.00800000E+00
  1.60000000E+01  1.00800000E+00  1.00800000E+00  1.60000000E+01  1.00800000E+00
  1.00800000E+00  1.60000000E+01  1.00800000E+00  1.00800000E+00  1.60000000E+01
  1.00800000E+00  1.00800000E+00  1.60000000E+01  1.00800000E+00  1.00800000E+00
  1.60000000E+01  1.00800000E+00  1.00800000E+00  1.60000000E+01  1.00800000E+00
  1.00800000E+00  1.60000000E+01  1.00800000E+00  1.00800000E+00  1.60000000E+01
  1.00800000E+00  1.00800000E+00  1.60000000E+01  1.00800000E+00  1.00800000E+00
  1.60000000E+01  1.00800000E+00  1.00800000E+00  1.60000000E+01  1.00800000E+00
  1.00800000E+00  1.60000000E+01  1.00800000E+00  1.00800000E+00  1.60000000E+01
  1.00800000E+00  1.00800000E+00  1.60000000E+01  1.00800000E+00  1.00800000E+00
  1.60000000E+01  1.00800000E+00  1.00800000E+00  1.60000000E+01  1.00800000E+00
  1.00800000E+00  1.60000000E+01  1.00800000E+00  1.00800000E+00  1.60000000E+01
  1.00800000E+00  1.00800000E+00  1.60000000E+01  1.00800000E+00  1.00800000E+00
  1.60000000E+01  1.00800000E+00  1.00800000E+00  1.60000000E+01  1.00800000E+00
  1.00800000E+00  1.60000000E+01  1.00800000E+00  1.00800000E+00  1.60000000E+01
  1.00800000E+00  1.00800000E+00  1.60000000E+01  1.00800000E+00  1.00800000E+00
  1.60000000E+01  1.00800000E+00  1.00800000E+00  1.60000000E+01  1.00800000E+00
  1.00800000E+00  1.60000000E+01  1.00800000E+00  1.00800000E+00  1.60000000E+01
  1.00800000E+00  1.00800000E+00  1.60000000E+01  1.00800000E+00  1.00800000E+00
  1.60000000E+01  1.00800000E+00  1.00800000E+00  1.60000000E+01  1.00800000E+00
  1.00800000E+00  1.60000000E+01  1.00800000E+00  1.00800000E+00  1.60000000E+01
  1.00800000E+00  1.00800000E+00  1.60000000E+01  1.00800000E+00  1.00800000E+00
  1.60000000E+01  1.00800000E+00  1.00800000E+00  1.60000000E+01  1.00800000E+00
  1.00800000E+00  1.60000000E+01  1.00800000E+00  1.00800000E+00  1.60000000E+01
  1.00800000E+00  1.00800000E+00  1.60000000E+01  1.00800000E+00  1.00800000E+00
  1.60000000E+01  1.00800000E+00  1.00800000E+00  1.60000000E+01  1.00800000E+00
  1.00800000E+00  1.60000000E+01  1.00800000E+00  1.00800000E+00  1.60000000E+01
  1.00800000E+00  1.00800000E+00  1.60000000E+01  1.00800000E+00  1.00800000E+00
  1.60000000E+01  1.00800000E+00  1.00800000E+00  1.60000000E+01  1.00800000E+00
  1.00800000E+00  1.60000000E+01  1.00800000E+00  1.00800000E+00  1.60000000E+01
  1.00800000E+00  1.00800000E+00  1.60000000E+01  1.00800000E+00  1.00800000E+00
  1.60000000E+01  1.00800000E+00  1.00800000E+00  1.60000000E+01  1.00800000E+00
  1.00800000E+00  1.60000000E+01  1.00800000E+00  1.00800000E+00  1.60000000E+01
  1.00800000E+00  1.00800000E+00  1.60000000E+01  1.00800000E+00  1.00800000E+00
  1.60000000E+01  1.00800000E+00  1.00800000E+00  1.60000000E+01  1.00800000E+00
  1.00800000E+00  1.60000000E+01  1.00800000E+00  1.00800000E+00  1.60000000E+01
  1.00800000E+00  1.00800000E+00  1.60000000E+01  1.00800000E+00  1.00800000E+00
  1.60000000E+01  1.00800000E+00  1.00800000E+00  1.60000000E+01  1.00800000E+00
  1.00800000E+00  1.60000000E+01  1.00800000E+00  1.00800000E+00  1.60000000E+01
  1.00800000E+00  1.00800000E+00  1.60000000E+01  1.00800000E+00  1.00800000E+00
  1.60000000E+01  1.00800000E+00  1.00800000E+00  1.60000000E+01  1.00800000E+00
  1.00800000E+00  1.60000000E+01  1.00800000E+00  1.00800000E+00  1.60000000E+01
  1.00800000E+00  1.00800000E+00  1.60000000E+01  1.00800000E+00  1.00800000E+00
  1.60000000E+01  1.00800000E+00  1.00800000E+00  1.60000000E+01  1.00800000E+00
  1.00800000E+00  1.60000000E+01  1.00800000E+00  1.00800000E+00  1.60000000E+01
  1.00800000E+00  1.00800000E+00  1.60000000E+01  1.00800000E+00  1.00800000E+00
  1.60000000E+01  1.00800000E+00  1.00800000E+00  1.60000000E+01  1.00800000E+00
  1.00800000E+00  1.60000000E+01  1.00800000E+00  1.00800000E+00  1.60000000E+01
  1.00800000E+00  1.00800000E+00  1.60000000E+01  1.00800000E+00  1.00800000E+00
  1.60000000E+01  1.00800000E+00  1.00800000E+00  1.60000000E+01  1.00800000E+00
  1.00800000E+00  1.60000000E+01  1.00800000E+00  1.00800000E+00  1.60000000E+01
  1.00800000E+00  1.00800000E+00  1.60000000E+01  1.00800000E+00  1.00800000E+00
  1.60000000E+01  1.00800000E+00  1.00800000E+00  1.60000000E+01  1.00800000E+00
  1.00800000E+00  1.60000000E+01  1.00800000E+00  1.00800000E+00  1.60000000E+01
  1.00800000E+00  1.00800000E+00  1.60000000E+01  1.00800000E+00  1.00800000E+00
  1.60000000E+01  1.00800000E+00  1.00800000E+00  1.60000000E+01  1.00800000E+00
  1.00800000E+00  1.60000000E+01  1.00800000E+00  1.00800000E+00  1.60000000E+01
  1.00800000E+00  1.00800000E+00  1.60000000E+01  1.00800000E+00  1.00800000E+00
  1.60000000E+01  1.00800000E+00  1.00800000E+00  1.60000000E+01  1.00800000E+00
  1.00800000E+00  1.60000000E+01  1.00800000E+00  1.00800000E+00  1.60000000E+01
  1.00800000E+00  1.00800000E+00  1.60000000E+01  1.00800000E+00  1.00800000E+00
  1.60000000E+01  1.00800000E+00  1.00800000E+00  1.60000000E+01  1.00800000E+00
  1.00800000E+00  1.60000000E+01  1.00800000E+00  1.00800000E+00  1.60000000E+01
  1.00800000E+00  1.00800000E+00  1.60000000E+01  1.00800000E+00  1.00800000E+00
  1.60000000E+01  1.00800000E+00  1.00800000E+00  1.60000000E+01  1.00800000E+00
  1.00800000E+00  1.60000000E+01  1.00800000E+00  1.00800000E+00  1.60000000E+01
  1.00800000E+00  1.00800000E+00  1.60000000E+01  1.00800000E+00  1.00800000E+00
  1.60000000E+01  1.00800000E+00  1.00800000E+00  1.60000000E+01  1.00800000E+00
  1.00800000E+00  1.60000000E+01  1.00800000E+00  1.00800000E+00  1.60000000E+01
  1.00800000E+00  1.00800000E+00  1.60000000E+01  1.00800000E+00  1.00800000E+00
  1.60000000E+01  1.00800000E+00  1.00800000E+00  1.60000000E+01  1.00800000E+00
  1.00800000E+00  1.60000000E+01  1.00800000E+00  1.00800000E+00  1.60000000E+01
  1.00800000E+00  1.00800000E+00  1.60000000E+01  1.00800000E+00  1.00800000E+00
  1.60000000E+01  1.00800000E+00  1.00800000E+00  1.60000000E+01  1.00800000E+00
  1.00800000E+00  1.60000000E+01  1.00800000E+00  1.00800000E+00  1.60000000E+01
  1.00800000E+00  1.00800000E+00  1.60000000E+01  1.00800000E+00  1.00800000E+00
  1.60000000E+01  1.00800000E+00  1.00800000E+00  1.60000000E+01  1.00800000E+00
  1.00800000E+00  1.60000000E+01  1.00800000E+00  1.00800000E+00  1.60000000E+01
  1.00800000E+00  1.00800000E+00  1.60000000E+01  1.00800000E+00  1.00800000E+00
  1.60000000E+01  1.00800000E+00  1.00800000E+00  1.60000000E+01  1.00800000E+00
  1.00800000E+00  1.60000000E+01  1.00800000E+00  1.00800000E+00  1.60000000E+01
  1.00800000E+00  1.00800000E+00  1.60000000E+01  1.00800000E+00  1.00800000E+00
  1.60000000E+01  1.00800000E+00  1.00800000E+00  1.60000000E+01  1.00800000E+00
  1.00800000E+00  1.60000000E+01  1.00800000E+00  1.00800000E+00  1.60000000E+01
  1.00800000E+00  1.00800000E+00  1.60000000E+01  1.00800000E+00  1.00800000E+00
  1.60000000E+01  1.00800000E+00  1.00800000E+00  1.60000000E+01  1.00800000E+00
  1.00800000E+00  1.60000000E+01  1.00800000E+00  1.00800000E+00  1.60000000E+01
  1.00800000E+00  1.00800000E+00  1.60000000E+01  1.00800000E+00  1.00800000E+00
  1.60000000E+01  1.00800000E+00  1.00800000E+00  1.60000000E+01  1.00800000E+00
  1.00800000E+00  1.60000000E+01  1.00800000E+00  1.00800000E+00  1.60000000E+01
  1.00800000E+00  1.00800000E+00  1.60000000E+01  1.00800000E+00  1.00800000E+00
  1.60000000E+01  1.00800000E+00  1.00800000E+00  1.60000000E+01  1.00800000E+00
  1.00800000E+00  1.60000000E+01  1.00800000E+00  1.00800000E+00  1.60000000E+01
  1.00800000E+00  1.00800000E+00  1.60000000E+01  1.00800000E+00  1.00800000E+00
  1.60000000E+01  1.00800000E+00  1.00800000E+00  1.60000000E+01  1.00800000E+00
  1.00800000E+00  1.60000000E+01  1.00800000E+00  1.00800000E+00  1.60000000E+01
  1.00800000E+00  1.00800000E+00  1.60000000E+01  1.00800000E+00  1.00800000E+00
  1.60000000E+01  1.00800000E+00  1.00800000E+00  1.60000000E+01  1.00800000E+00
  1.00800000E+00  1.60000000E+01  1.00800000E+00  1.00800000E+00  1.60000000E+01
  1.00800000E+00  1.00800000E+00  1.60000000E+01  1.00800000E+00  1.00800000E+00
  1.60000000E+01  1.00800000E+00  1.00800000E+00  1.60000000E+01  1.00800000E+00
  1.00800000E+00  1.60000000E+01  1.00800000E+00  1.00800000E+00  1.60000000E+01
  1.00800000E+00  1.00800000E+00  1.60000000E+01  1.00800000E+00  1.00800000E+00
  1.60000000E+01  1.00800000E+00  1.00800000E+00  1.60000000E+01  1.00800000E+00
  1.00800000E+00  1.60000000E+01  1.00800000E+00  1.00800000E+00  1.60000000E+01
  1.00800000E+00  1.00800000E+00  1.60000000E+01  1.00800000E+00  1.00800000E+00
  1.60000000E+01  1.00800000E+00  1.00800000E+00  1.60000000E+01  1.00800000E+00
  1.00800000E+00  1.60000000E+01  1.00800000E+00  1.00800000E+00  1.60000000E+01
  1.00800000E+00  1.00800000E+00  1.60000000E+01  1.00800000E+00  1.00800000E+00
  1.60000000E+01  1.00800000E+00  1.00800000E+00  1.60000000E+01  1.00800000E+00
  1.00800000E+00  1.60000000E+01  1.00800000E+00  1.00800000E+00  1.60000000E+01
  1.00800000E+00  1.00800000E+00  1.60000000E+01  1.00800000E+00  1.00800000E+00
  1.60000000E+01  1.00800000E+00  1.00800000E+00  1.60000000E+01  1.00800000E+00
  1.00800000E+00  1.60000000E+01  1.00800000E+00  1.00800000E+00  1.60000000E+01
  1.00800000E+00  1.00800000E+00  1.60000000E+01  1.00800000E+00  1.00800000E+00
  1.60000000E+01  1.00800000E+00  1.00800000E+00  1.60000000E+01  1.00800000E+00
  1.00800000E+00  1.60000000E+01  1.00800000E+00  1.00800000E+00  1.60000000E+01
  1.00800000E+00  1.00800000E+00  1.60000000E+01  1.00800000E+00  1.00800000E+00
  1.60000000E+01  1.00800000E+00  1.00800000E+00  1.60000000E+01  1.00800000E+00
  1.00800000E+00  1.60000000E+01  1.00800000E+00  1.00800000E+00  1.60000000E+01
  1.00800000E+00  1.00800000E+00  1.60000000E+01  1.00800000E+00  1.00800000E+00
  1.60000000E+01  1.00800000E+00  1.00800000E+00  1.60000000E+01  1.00800000E+00
  1.00800000E+00  1.60000000E+01  1.00800000E+00  1.00800000E+00  1.60000000E+01
  1.00800000E+00  1.00800000E+00  1.60000000E+01  1.00800000E+00  1.00800000E+00
  1.60000000E+01  1.00800000E+00  1.00800000E+00  1.60000000E+01  1.00800000E+00
  1.00800000E+00  1.60000000E+01  1.00800000E+00  1.00800000E+00  1.60000000E+01
  1.00800000E+00  1.00800000E+00  1.60000000E+01  1.00800000E+00  1.00800000E+00
  1.60000000E+01  1.00800000E+00  1.00800000E+00  1.60000000E+01  1.00800000E+00
  1.00800000E+00  1.60000000E+01  1.00800000E+00  1.00800000E+00  1.60000000E+01
  1.00800000E+00  1.00800000E+00  1.60000000E+01  1.00800000E+00  1.00800000E+00
  1.60000000E+01  1.00800000E+00  1.00800000E+00  1.60000000E+01  1.00800000E+00
  1.00800000E+00  1.60000000E+01  1.00800000E+00  1.00800000E+00  1.60000000E+01
  1.00800000E+00  1.00800000E+00  1.60000000E+01  1.00800000E+00  1.00800000E+00
  1.60000000E+01  1.00800000E+00  1.00800000E+00  1.60000000E+01  1.00800000E+00
  1.00800000E+00  1.60000000E+01  1.00800000E+00  1.00800000E+00  1.60000000E+01
  1.00800000E+00  1.00800000E+00  1.60000000E+01  1.00800000E+00  1.00800000E+00
  1.60000000E+01  1.00800000E+00  1.00800000E+00  1.60000000E+01  1.00800000E+00
  1.00800000E+00  1.60000000E+01  1.00800000E+00  1.00800000E+00  1.60000000E+01
  1.00800000E+00  1.00800000E+00  1.60000000E+01  1.00800000E+00  1.00800000E+00
  1.60000000E+01  1.00800000E+00  1.00800000E+00  1.60000000E+01  1.00800000E+00
  1.00800000E+00  1.60000000E+01  1.00800000E+00  1.00800000E+00  1.60000000E+01
  1.00800000E+00  1.00800000E+00  1.60000000E+01  1.00800000E+00  1.00800000E+00
  1.60000000E+01  1.00800000E+00  1.00800000E+00  1.60000000E+01  1.00800000E+00
  1.00800000E+00  1.60000000E+01  1.00800000E+00  1.00800000E+00  1.60000000E+01
  1.00800000E+00  1.00800000E+00  1.60000000E+01  1.00800000E+00  1.00800000E+00
  1.60000000E+01  1.00800000E+00  1.00800000E+00  1.60000000E+01  1.00800000E+00
  1.00800000E+00  1.60000000E+01  1.00800000E+00  1.00800000E+00  1.60000000E+01
  1.00800000E+00  1.00800000E+00  1.60000000E+01  1.00800000E+00  1.00800000E+00
  1.60000000E+01  1.00800000E+00  1.00800000E+00  1.60000000E+01  1.00800000E+00
  1.00800000E+00  1.60000000E+01  1.00800000E+00  1.00800000E+00  1.60000000E+01
  1.00800000E+00  1.00800000E+00  1.60000000E+01  1.00800000E+00  1.00800000E+00
  1.60000000E+01  1.00800000E+00  1.00800000E+00  1.60000000E+01  1.00800000E+00
  1.00800000E+00  1.60000000E+01  1.00800000E+00  1.00800000E+00  1.60000000E+01
  1.00800000E+00  1.00800000E+00  1.60000000E+01  1.00800000E+00  1.00800000E+00
  1.60000000E+01  1.00800000E+00  1.00800000E+00  1.60000000E+01  1.00800000E+00
  1.00800000E+00  1.60000000E+01  1.00800000E+00  1.00800000E+00  1.60000000E+01
  1.00800000E+00  1.00800000E+00  1.60000000E+01  1.00800000E+00  1.00800000E+00
  1.60000000E+01  1.00800000E+00  1.00800000E+00  1.60000000E+01  1.00800000E+00
  1.00800000E+00  1.60000000E+01  1.00800000E+00  1.00800000E+00  1.60000000E+01
  1.00800000E+00  1.00800000E+00  1.60000000E+01  1.00800000E+00  1.00800000E+00
  1.60000000E+01  1.00800000E+00  1.00800000E+00  1.60000000E+01  1.00800000E+00
  1.00800000E+00  1.60000000E+01  1.00800000E+00  1.00800000E+00  1.60000000E+01
  1.00800000E+00  1.00800000E+00  1.60000000E+01  1.00800000E+00  1.00800000E+00
  1.60000000E+01  1.00800000E+00  1.00800000E+00  1.60000000E+01  1.00800000E+00
  1.00800000E+00  1.60000000E+01  1.00800000E+00  1.00800000E+00  1.60000000E+01
  1.00800000E+00  1.00800000E+00  1.60000000E+01  1.00800000E+00  1.00800000E+00
  1.60000000E+01  1.00800000E+00  1.00800000E+00  1.60000000E+01  1.00800000E+00
  1.00800000E+00  1.60000000E+01  1.00800000E+00  1.00800000E+00  1.60000000E+01
  1.00800000E+00  1.00800000E+00  1.60000000E+01  1.00800000E+00  1.00800000E+00
  1.60000000E+01  1.00800000E+00  1.00800000E+00  1.60000000E+01  1.00800000E+00
  1.00800000E+00  1.60000000E+01  1.00800000E+00  1.00800000E+00  1.60000000E+01
  1.00800000E+00  1.00800000E+00  1.60000000E+01  1.00800000E+00  1.00800000E+00
  1.60000000E+01  1.00800000E+00  1.00800000E+00  1.60000000E+01  1.00800000E+00
  1.00800000E+00  1.60000000E+01  1.00800000E+00  1.00800000E+00  1.60000000E+01
  1.00800000E+00  1.00800000E+00  1.60000000E+01  1.00800000E+00  1.00800000E+00
  1.60000000E+01  1.00800000E+00  1.00800000E+00  1.60000000E+01  1.00800000E+00
  1.00800000E+00  1.60000000E+01  1.00800000E+00  1.00800000E+00  1.60000000E+01
  1.00800000E+00  1.00800000E+00  1.60000000E+01  1.00800000E+00  1.00800000E+00
  1.60000000E+01  1.00800000E+00  1.00800000E+00  1.60000000E+01  1.00800000E+00
  1.00800000E+00  1.60000000E+01  1.00800000E+00  1.00800000E+00  1.60000000E+01
  1.00800000E+00  1.00800000E+00  1.60000000E+01  1.00800000E+00  1.00800000E+00
  1.60000000E+01  1.00800000E+00  1.00800000E+00  1.60000000E+01  1.00800000E+00
  1.00800000E+00  1.60000000E+01  1.00800000E+00  1.00800000E+00  1.60000000E+01
  1.00800000E+00  1.00800000E+00  1.60000000E+01  1.00800000E+00  1.00800000E+00
  1.60000000E+01  1.00800000E+00  1.00800000E+00  1.60000000E+01  1.00800000E+00
  1.00800000E+00  1.60000000E+01  1.00800000E+00  1.00800000E+00  1.60000000E+01
  1.00800000E+00  1.00800000E+00  1.60000000E+01  1.00800000E+00  1.00800000E+00
  1.60000000E+01  1.00800000E+00  1.00800000E+00  1.60000000E+01  1.00800000E+00
  1.00800000E+00  1.60000000E+01  1.00800000E+00  1.00800000E+00  1.60000000E+01
  1.00800000E+00  1.00800000E+00  1.60000000E+01  1.00800000E+00  1.00800000E+00
  1.60000000E+01  1.00800000E+00  1.00800000E+00  1.60000000E+01  1.00800000E+00
  1.00800000E+00  1.60000000E+01  1.00800000E+00  1.00800000E+00  1.60000000E+01
  1.00800000E+00  1.00800000E+00  1.60000000E+01  1.00800000E+00  1.00800000E+00
  1.60000000E+01  1.00800000E+00  1.00800000E+00  1.60000000E+01  1.00800000E+00
  1.00800000E+00  1.60000000E+01  1.00800000E+00  1.00800000E+00  1.60000000E+01
  1.00800000E+00  1.00800000E+00  1.60000000E+01  1.00800000E+00  1.00800000E+00
  1.60000000E+01  1.00800000E+00  1.00800000E+00  1.60000000E+01  1.00800000E+00
  1.00800000E+00  1.60000000E+01  1.00800000E+00  1.00800000E+00  1.60000000E+01
  1.00800000E+00  1.00800000E+00  1.60000000E+01  1.00800000E+00  1.00800000E+00
  1.60000000E+01  1.00800000E+00  1.00800000E+00  1.60000000E+01  1.00800000E+00
  1.00800000E+00  1.60000000E+01  1.00800000E+00  1.00800000E+00  1.60000000E+01
  1.00800000E+00  1.00800000E+00  1.60000000E+01  1.00800000E+00  1.00800000E+00
  1.60000000E+01  1.00800000E+00  1.00800000E+00  1.60000000E+01  1.00800000E+00
  1.00800000E+00  1.60000000E+01  1.00800000E+00  1.00800000E+00  1.60000000E+01
  1.00800000E+00  1.00800000E+00  1.60000000E+01  1.00800000E+00  1.00800000E+00
  1.60000000E+01  1.00800000E+00  1.00800000E+00  1.60000000E+01  1.00800000E+00
  1.00800000E+00  1.60000000E+01  1.00800000E+00  1.00800000E+00  1.60000000E+01
  1.00800000E+00  1.00800000E+00  1.60000000E+01  1.00800000E+00  1.00800000E+00
  1.60000000E+01  1.00800000E+00  1.00800000E+00  1.60000000E+01  1.00800000E+00
  1.00800000E+00  1.60000000E+01  1.00800000E+00  1.00800000E+00  1.60000000E+01
  1.00800000E+00  1.00800000E+00  1.60000000E+01  1.00800000E+00  1.00800000E+00
  1.60000000E+01  1.00800000E+00  1.00800000E+00  1.60000000E+01  1.00800000E+00
  1.00800000E+00  1.60000000E+01  1.00800000E+00  1.00800000E+00  1.60000000E+01
  1.00800000E+00  1.00800000E+00  1.60000000E+01  1.00800000E+00  1.00800000E+00
  1.60000000E+01  1.00800000E+00  1.00800000E+00  1.60000000E+01  1.00800000E+00
  1.00800000E+00  1.60000000E+01  1.00800000E+00  1.00800000E+00  1.60000000E+01
  1.00800000E+00  1.00800000E+00  1.60000000E+01  1.00800000E+00  1.00800000E+00
  1.60000000E+01  1.00800000E+00  1.00800000E+00  1.60000000E+01  1.00800000E+00
  1.00800000E+00  1.60000000E+01  1.00800000E+00  1.00800000E+00  1.60000000E+01
  1.00800000E+00  1.00800000E+00  1.60000000E+01  1.00800000E+00  1.00800000E+00
  1.60000000E+01  1.00800000E+00  1.00800000E+00  1.60000000E+01  1.00800000E+00
  1.00800000E+00  1.60000000E+01  1.00800000E+00  1.00800000E+00  1.60000000E+01
  1.00800000E+00  1.00800000E+00  1.60000000E+01  1.00800000E+00  1.00800000E+00
  1.60000000E+01  1.00800000E+00  1.00800000E+00  1.60000000E+01  1.00800000E+00
  1.00800000E+00  1.60000000E+01  1.00800000E+00  1.00800000E+00  1.60000000E+01
  1.00800000E+00  1.00800000E+00  1.60000000E+01  1.00800000E+00  1.00800000E+00
  1.60000000E+01  1.00800000E+00  1.00800000E+00  1.60000000E+01  1.00800000E+00
  1.00800000E+00  1.60000000E+01  1.00800000E+00  1.00800000E+00  1.60000000E+01
  1.00800000E+00  1.00800000E+00  1.60000000E+01  1.00800000E+00  1.00800000E+00
  1.60000000E+01  1.00800000E+00  1.00800000E+00  1.60000000E+01  1.00800000E+00
  1.00800000E+00  1.60000000E+01  1.00800000E+00  1.00800000E+00  1.60000000E+01
  1.00800000E+00  1.00800000E+00  1.60000000E+01  1.00800000E+00  1.00800000E+00
  1.60000000E+01  1.00800000E+00  1.00800000E+00  1.60000000E+01  1.00800000E+00
  1.00800000E+00  1.60000000E+01  1.00800000E+00  1.00800000E+00  1.60000000E+01
  1.00800000E+00  1.00800000E+00  1.60000000E+01  1.00800000E+00  1.00800000E+00
  1.60000000E+01  1.00800000E+00  1.00800000E+00  1.60000000E+01  1.00800000E+00
  1.00800000E+00  1.60000000E+01  1.00800000E+00  1.00800000E+00  1.60000000E+01
  1.00800000E+00  1.00800000E+00  1.60000000E+01  1.00800000E+00  1.00800000E+00
  1.60000000E+01  1.00800000E+00  1.00800000E+00  1.60000000E+01  1.00800000E+00
  1.00800000E+00  1.60000000E+01  1.00800000E+00  1.00800000E+00  1.60000000E+01
  1.00800000E+00  1.00800000E+00  1.60000000E+01  1.00800000E+00  1.00800000E+00
  1.60000000E+01  1.00800000E+00  1.00800000E+00  1.60000000E+01  1.00800000E+00
  1.00800000E+00  1.60000000E+01  1.00800000E+00  1.00800000E+00  1.60000000E+01
  1.00800000E+00  1.00800000E+00  1.60000000E+01  1.00800000E+00  1.00800000E+00
  1.60000000E+01  1.00800000E+00  1.00800000E+00  1.60000000E+01  1.00800000E+00
  1.00800000E+00  1.60000000E+01  1.00800000E+00  1.00800000E+00  1.60000000E+01
  1.00800000E+00  1.00800000E+00  1.60000000E+01  1.00800000E+00  1.00800000E+00
  1.60000000E+01  1.00800000E+00  1.00800000E+00  1.60000000E+01  1.00800000E+00
  1.00800000E+00  1.60000000E+01  1.00800000E+00  1.00800000E+00  1.60000000E+01
  1.00800000E+00  1.00800000E+00  1.60000000E+01  1.00800000E+00  1.00800000E+00
  1.60000000E+01  1.00800000E+00  1.00800000E+00  1.60000000E+01  1.00800000E+00
  1.00800000E+00  1.60000000E+01  1.00800000E+00  1.00800000E+00  1.60000000E+01
  1.00800000E+00  1.00800000E+00  1.60000000E+01  1.00800000E+00  1.00800000E+00
  1.60000000E+01  1.00800000E+00  1.00800000E+00  1.60000000E+01  1.00800000E+00
  1.00800000E+00  1.60000000E+01  1.00800000E+00  1.00800000E+00  1.60000000E+01
  1.00800000E+00  1.00800000E+00  1.60000000E+01  1.00800000E+00  1.00800000E+00
  1.60000000E+01  1.00800000E+00  1.00800000E+00  1.60000000E+01  1.00800000E+00
  1.00800000E+00  1.60000000E+01  1.00800000E+00  1.00800000E+00  1.60000000E+01
  1.00800000E+00  1.00800000E+00  1.60000000E+01  1.00800000E+00  1.00800000E+00
  1.60000000E+01  1.00800000E+00  1.00800000E+00  1.60000000E+01  1.00800000E+00
  1.00800000E+00  1.60000000E+01  1.00800000E+00  1.00800000E+00  1.60000000E+01
  1.00800000E+00  1.00800000E+00  1.60000000E+01  1.00800000E+00  1.00800000E+00
  1.60000000E+01  1.00800000E+00  1.00800000E+00  1.60000000E+01  1.00800000E+00
  1.00800000E+00  1.60000000E+01  1.00800000E+00  1.00800000E+00  1.60000000E+01
  1.00800000E+00  1.00800000E+00  1.60000000E+01  1.00800000E+00  1.00800000E+00
  1.60000000E+01  1.00800000E+00  1.00800000E+00  1.60000000E+01  1.00800000E+00
  1.00800000E+00  1.60000000E+01  1.00800000E+00  1.00800000E+00  1.60000000E+01
  1.00800000E+00  1.00800000E+00  1.60000000E+01  1.00800000E+00  1.00800000E+00
  1.60000000E+01  1.00800000E+00  1.00800000E+00  1.60000000E+01  1.00800000E+00
  1.00800000E+00  1.60000000E+01  1.00800000E+00  1.00800000E+00  1.60000000E+01
  1.00800000E+00  1.00800000E+00  1.60000000E+01  1.00800000E+00  1.00800000E+00
  1.60000000E+01  1.00800000E+00  1.00800000E+00  1.60000000E+01  1.00800000E+00
  1.00800000E+00  1.60000000E+01  1.00800000E+00  1.00800000E+00  1.60000000E+01
  1.00800000E+00  1.00800000E+00  1.60000000E+01  1.00800000E+00  1.00800000E+00
  1.60000000E+01  1.00800000E+00  1.00800000E+00  1.60000000E+01  1.00800000E+00
  1.00800000E+00  1.60000000E+01  1.00800000E+00  1.00800000E+00  1.60000000E+01
  1.00800000E+00  1.00800000E+00  1.60000000E+01  1.00800000E+00  1.00800000E+00
  1.60000000E+01  1.00800000E+00  1.00800000E+00  1.60000000E+01  1.00800000E+00
  1.00800000E+00  1.60000000E+01  1.00800000E+00  1.00800000E+00  1.60000000E+01
  1.00800000E+00  1.00800000E+00  1.60000000E+01  1.00800000E+00  1.00800000E+00
  1.60000000E+01  1.00800000E+00  1.00800000E+00  1.60000000E+01  1.00800000E+00
  1.00800000E+00  1.60000000E+01  1.00800000E+00  1.00800000E+00  1.60000000E+01
  1.00800000E+00  1.00800000E+00  1.60000000E+01  1.00800000E+00  1.00800000E+00
  1.60000000E+01  1.00800000E+00  1.00800000E+00  1.60000000E+01  1.00800000E+00
  1.00800000E+00  1.60000000E+01  1.00800000E+00  1.00800000E+00  1.60000000E+01
  1.00800000E+00  1.00800000E+00  1.60000000E+01  1.00800000E+00  1.00800000E+00
  1.60000000E+01  1.00800000E+00  1.00800000E+00  1.60000000E+01  1.00800000E+00
  1.00800000E+00  1.60000000E+01  1.00800000E+00  1.00800000E+00  1.60000000E+01
  1.00800000E+00  1.00800000E+00  1.60000000E+01  1.00800000E+00  1.00800000E+00
  1.60000000E+01  1.00800000E+00  1.00800000E+00  1.60000000E+01  1.00800000E+00
  1.00800000E+00  1.60000000E+01  1.00800000E+00  1.00800000E+00  1.60000000E+01
  1.00800000E+00  1.00800000E+00  1.60000000E+01  1.00800000E+00  1.00800000E+00
  1.60000000E+01  1.00800000E+00  1.00800000E+00  1.60000000E+01  1.00800000E+00
  1.00800000E+00  1.60000000E+01  1.00800000E+00  1.00800000E+00  1.60000000E+01
  1.00800000E+00  1.00800000E+00  1.60000000E+01  1.00800000E+00  1.00800000E+00
  1.60000000E+01  1.00800000E+00  1.00800000E+00  1.60000000E+01  1.00800000E+00
  1.00800000E+00  1.60000000E+01  1.00800000E+00  1.00800000E+00  1.60000000E+01
  1.00800000E+00  1.00800000E+00  1.60000000E+01  1.00800000E+00  1.00800000E+00
  1.60000000E+01  1.00800000E+00  1.00800000E+00  1.60000000E+01  1.00800000E+00
  1.00800000E+00  1.60000000E+01  1.00800000E+00  1.00800000E+00  1.60000000E+01
  1.00800000E+00  1.00800000E+00  1.60000000E+01  1.00800000E+00  1.00800000E+00
  1.60000000E+01  1.00800000E+00  1.00800000E+00  1.60000000E+01  1.00800000E+00
  1.00800000E+00  1.60000000E+01  1.00800000E+00  1.00800000E+00  1.60000000E+01
  1.00800000E+00  1.00800000E+00  1.60000000E+01  1.00800000E+00  1.00800000E+00
  1.60000000E+01  1.00800000E+00  1.00800000E+00  1.60000000E+01  1.00800000E+00
  1.00800000E+00  1.60000000E+01  1.00800000E+00  1.00800000E+00  1.60000000E+01
  1.00800000E+00  1.00800000E+00  1.60000000E+01  1.00800000E+00  1.00800000E+00
  1.60000000E+01  1.00800000E+00  1.00800000E+00  1.60000000E+01  1.00800000E+00
  1.00800000E+00  1.60000000E+01  1.00800000E+00  1.00800000E+00  1.60000000E+01
  1.00800000E+00  1.00800000E+00  1.60000000E+01  1.00800000E+00  1.00800000E+00
  1.60000000E+01  1.00800000E+00  1.00800000E+00  1.60000000E+01  1.00800000E+00
  1.00800000E+00  1.60000000E+01  1.00800000E+00  1.00800000E+00  1.60000000E+01
  1.00800000E+00  1.00800000E+00  1.60000000E+01  1.00800000E+00  1.00800000E+00
  1.60000000E+01  1.00800000E+00  1.00800000E+00  1.60000000E+01  1.00800000E+00
  1.00800000E+00  1.60000000E+01  1.00800000E+00  1.00800000E+00  1.60000000E+01
  1.00800000E+00  1.00800000E+00  1.60000000E+01  1.00800000E+00  1.00800000E+00
  1.60000000E+01  1.00800000E+00  1.00800000E+00  1.60000000E+01  1.00800000E+00
  1.00800000E+00  1.60000000E+01  1.00800000E+00  1.00800000E+00  1.60000000E+01
  1.00800000E+00  1.00800000E+00  1.60000000E+01  1.00800000E+00  1.00800000E+00
  1.60000000E+01  1.00800000E+00  1.00800000E+00  1.60000000E+01  1.00800000E+00
  1.00800000E+00  1.60000000E+01  1.00800000E+00  1.00800000E+00  1.60000000E+01
  1.00800000E+00  1.00800000E+00  1.60000000E+01  1.00800000E+00  1.00800000E+00
  1.60000000E+01  1.00800000E+00  1.00800000E+00  1.60000000E+01  1.00800000E+00
  1.00800000E+00  1.60000000E+01  1.00800000E+00  1.00800000E+00  1.60000000E+01
  1.00800000E+00  1.00800000E+00  1.60000000E+01  1.00800000E+00  1.00800000E+00
  1.60000000E+01  1.00800000E+00  1.00800000E+00  1.60000000E+01  1.00800000E+00
  1.00800000E+00  1.60000000E+01  1.00800000E+00  1.00800000E+00  1.60000000E+01
  1.00800000E+00  1.00800000E+00  1.60000000E+01  1.00800000E+00  1.00800000E+00
  1.60000000E+01  1.00800000E+00  1.00800000E+00  1.60000000E+01  1.00800000E+00
  1.00800000E+00  1.60000000E+01  1.00800000E+00  1.00800000E+00  1.60000000E+01
  1.00800000E+00  1.00800000E+00  1.60000000E+01  1.00800000E+00  1.00800000E+00
  1.60000000E+01  1.00800000E+00  1.00800000E+00  1.60000000E+01  1.00800000E+00
  1.00800000E+00  1.60000000E+01  1.00800000E+00  1.00800000E+00  1.60000000E+01
  1.00800000E+00  1.00800000E+00  1.60000000E+01  1.00800000E+00  1.00800000E+00
  1.60000000E+01  1.00800000E+00  1.00800000E+00  1.60000000E+01  1.00800000E+00
  1.00800000E+00  1.60000000E+01  1.00800000E+00  1.00800000E+00  1.60000000E+01
  1.00800000E+00  1.00800000E+00  1.60000000E+01  1.00800000E+00  1.00800000E+00
  1.60000000E+01  1.00800000E+00  1.00800000E+00  1.60000000E+01  1.00800000E+00
  1.00800000E+00  1.60000000E+01  1.00800000E+00  1.00800000E+00  1.60000000E+01
  1.00800000E+00  1.00800000E+00  1.60000000E+01  1.00800000E+00  1.00800000E+00
  1.60000000E+01  1.00800000E+00  1.00800000E+00  1.60000000E+01  1.00800000E+00
  1.00800000E+00  1.60000000E+01  1.00800000E+00  1.00800000E+00  1.60000000E+01
  1.00800000E+00  1.00800000E+00  1.60000000E+01  1.00800000E+00  1.00800000E+00
  1.60000000E+01  1.00800000E+00  1.00800000E+00  1.60000000E+01  1.00800000E+00
  1.00800000E+00  1.60000000E+01  1.00800000E+00  1.00800000E+00  1.60000000E+01
  1.00800000E+00  1.00800000E+00  1.60000000E+01  1.00800000E+00  1.00800000E+00
  1.60000000E+01  1.00800000E+00  1.00800000E+00  1.60000000E+01  1.00800000E+00
  1.00800000E+00  1.60000000E+01  1.00800000E+00  1.00800000E+00  1.60000000E+01
  1.00800000E+00  1.00800000E+00  1.60000000E+01  1.00800000E+00  1.00800000E+00
  1.60000000E+01  1.00800000E+00  1.00800000E+00  1.60000000E+01  1.00800000E+00
  1.00800000E+00  1.60000000E+01  1.00800000E+00  1.00800000E+00  1.60000000E+01
  1.00800000E+00  1.00800000E+00  1.60000000E+01  1.00800000E+00  1.00800000E+00
  1.60000000E+01  1.00800000E+00  1.00800000E+00  1.60000000E+01  1.00800000E+00
  1.00800000E+00  1.60000000E+01  1.00800000E+00  1.00800000E+00  1.60000000E+01
  1.00800000E+00  1.00800000E+00  1.60000000E+01  1.00800000E+00  1.00800000E+00
  1.60000000E+01  1.00800000E+00  1.00800000E+00  1.60000000E+01  1.00800000E+00
  1.00800000E+00  1.60000000E+01  1.00800000E+00  1.00800000E+00  1.60000000E+01
  1.00800000E+00  1.00800000E+00  1.60000000E+01  1.00800000E+00  1.00800000E+00
  1.60000000E+01  1.00800000E+00  1.00800000E+00  1.60000000E+01  1.00800000E+00
  1.00800000E+00  1.60000000E+01  1.00800000E+00  1.00800000E+00  1.60000000E+01
  1.00800000E+00  1.00800000E+00  1.60000000E+01  1.00800000E+00  1.00800000E+00
  1.60000000E+01  1.00800000E+00  1.00800000E+00  1.60000000E+01  1.00800000E+00
  1.00800000E+00  1.60000000E+01  1.00800000E+00  1.00800000E+00  1.60000000E+01
  1.00800000E+00  1.00800000E+00  1.60000000E+01  1.00800000E+00  1.00800000E+00
  1.60000000E+01  1.00800000E+00  1.00800000E+00  1.60000000E+01  1.00800000E+00
  1.00800000E+00  1.60000000E+01  1.00800000E+00  1.00800000E+00  1.60000000E+01
  1.00800000E+00  1.00800000E+00  1.60000000E+01  1.00800000E+00  1.00800000E+00
  1.60000000E+01  1.00800000E+00  1.00800000E+00  1.60000000E+01  1.00800000E+00
  1.00800000E+00  1.60000000E+01  1.00800000E+00  1.00800000E+00  1.60000000E+01
  1.00800000E+00  1.00800000E+00  1.60000000E+01  1.00800000E+00  1.00800000E+00
  1.60000000E+01  1.00800000E+00  1.00800000E+00  1.60000000E+01  1.00800000E+00
  1.00800000E+00  1.60000000E+01  1.00800000E+00  1.00800000E+00  1.60000000E+01
  1.00800000E+00  1.00800000E+00  1.60000000E+01  1.00800000E+00  1.00800000E+00
  1.60000000E+01  1.00800000E+00  1.00800000E+00  1.60000000E+01  1.00800000E+00
  1.00800000E+00  1.60000000E+01  1.00800000E+00  1.00800000E+00  1.60000000E+01
  1.00800000E+00  1.00800000E+00  1.60000000E+01  1.00800000E+00  1.00800000E+00
  1.60000000E+01  1.00800000E+00  1.00800000E+00  1.60000000E+01  1.00800000E+00
  1.00800000E+00  1.60000000E+01  1.00800000E+00  1.00800000E+00  1.60000000E+01
  1.00800000E+00  1.00800000E+00  1.60000000E+01  1.00800000E+00  1.00800000E+00
  1.60000000E+01  1.00800000E+00  1.00800000E+00  1.60000000E+01  1.00800000E+00
  1.00800000E+00  1.60000000E+01  1.00800000E+00  1.00800000E+00  1.60000000E+01
  1.00800000E+00  1.00800000E+00  1.60000000E+01  1.00800000E+00  1.00800000E+00
  1.60000000E+01  1.00800000E+00  1.00800000E+00  1.60000000E+01  1.00800000E+00
  1.00800000E+00  1.60000000E+01  1.00800000E+00  1.00800000E+00  1.60000000E+01
  1.00800000E+00  1.00800000E+00  1.60000000E+01  1.00800000E+00  1.00800000E+00
  1.60000000E+01  1.00800000E+00  1.00800000E+00  1.60000000E+01  1.00800000E+00
  1.00800000E+00  1.60000000E+01  1.00800000E+00  1.00800000E+00  1.60000000E+01
  1.00800000E+00  1.00800000E+00  1.60000000E+01  1.00800000E+00  1.00800000E+00
  1.60000000E+01  1.00800000E+00  1.00800000E+00  1.60000000E+01  1.00800000E+00
  1.00800000E+00  1.60000000E+01  1.00800000E+00  1.00800000E+00  1.60000000E+01
  1.00800000E+00  1.00800000E+00  1.60000000E+01  1.00800000E+00  1.00800000E+00
  1.60000000E+01  1.00800000E+00  1.00800000E+00  1.60000000E+01  1.00800000E+00
  1.00800000E+00  1.60000000E+01  1.00800000E+00  1.00800000E+00  1.60000000E+01
  1.00800000E+00  1.00800000E+00  1.60000000E+01  1.00800000E+00  1.00800000E+00
  1.60000000E+01  1.00800000E+00  1.00800000E+00  1.60000000E+01  1.00800000E+00
  1.00800000E+00  1.60000000E+01  1.00800000E+00  1.00800000E+00  1.60000000E+01
  1.00800000E+00  1.00800000E+00  1.60000000E+01  1.00800000E+00  1.00800000E+00
  1.60000000E+01  1.00800000E+00  1.00800000E+00  1.60000000E+01  1.00800000E+00
  1.00800000E+00  1.60000000E+01  1.00800000E+00  1.00800000E+00  1.60000000E+01
  1.00800000E+00  1.00800000E+00  1.60000000E+01  1.00800000E+00  1.00800000E+00
  1.60000000E+01  1.00800000E+00  1.00800000E+00  1.60000000E+01  1.00800000E+00
  1.00800000E+00  1.60000000E+01  1.00800000E+00  1.00800000E+00  1.60000000E+01
  1.00800000E+00  1.00800000E+00  1.60000000E+01  1.00800000E+00  1.00800000E+00
  1.60000000E+01  1.00800000E+00  1.00800000E+00  1.60000000E+01  1.00800000E+00
  1.00800000E+00  1.60000000E+01  1.00800000E+00  1.00800000E+00  1.60000000E+01
  1.00800000E+00  1.00800000E+00  1.60000000E+01  1.00800000E+00  1.00800000E+00
  1.60000000E+01  1.00800000E+00  1.00800000E+00  1.60000000E+01  1.00800000E+00
  1.00800000E+00  1.60000000E+01  1.00800000E+00  1.00800000E+00  1.60000000E+01
  1.00800000E+00  1.00800000E+00  1.60000000E+01  1.00800000E+00  1.00800000E+00
  1.60000000E+01  1.00800000E+00  1.00800000E+00  1.60000000E+01  1.00800000E+00
  1.00800000E+00  1.60000000E+01  1.00800000E+00  1.00800000E+00  1.60000000E+01
  1.00800000E+00  1.00800000E+00  1.60000000E+01  1.00800000E+00  1.00800000E+00
  1.60000000E+01  1.00800000E+00  1.00800000E+00  1.60000000E+01  1.00800000E+00
  1.00800000E+00  1.60000000E+01  1.00800000E+00  1.00800000E+00  1.60000000E+01
  1.00800000E+00  1.00800000E+00  1.60000000E+01  1.00800000E+00  1.00800000E+00
  1.60000000E+01  1.00800000E+00  1.00800000E+00  1.60000000E+01  1.00800000E+00
  1.00800000E+00  1.60000000E+01  1.00800000E+00  1.00800000E+00  1.60000000E+01
  1.00800000E+00  1.00800000E+00  1.60000000E+01  1.00800000E+00  1.00800000E+00
  1.60000000E+01  1.00800000E+00  1.00800000E+00  1.60000000E+01  1.00800000E+00
  1.00800000E+00  1.60000000E+01  1.00800000E+00  1.00800000E+00  1.60000000E+01
  1.00800000E+00  1.00800000E+00  1.60000000E+01  1.00800000E+00  1.00800000E+00
  1.60000000E+01  1.00800000E+00  1.00800000E+00  1.60000000E+01  1.00800000E+00
  1.00800000E+00  1.60000000E+01  1.00800000E+00  1.00800000E+00  1.60000000E+01
  1.00800000E+00  1.00800000E+00  1.60000000E+01  1.00800000E+00  1.00800000E+00
  1.60000000E+01  1.00800000E+00  1.00800000E+00  1.60000000E+01  1.00800000E+00
  1.00800000E+00  1.60000000E+01  1.00800000E+00  1.00800000E+00  1.60000000E+01
  1.00800000E+00  1.00800000E+00  1.60000000E+01  1.00800000E+00  1.00800000E+00
  1.60000000E+01  1.00800000E+00  1.00800000E+00  1.60000000E+01  1.00800000E+00
  1.00800000E+00  1.60000000E+01  1.00800000E+00  1.00800000E+00  1.60000000E+01
  1.00800000E+00  1.00800000E+00  1.60000000E+01  1.00800000E+00  1.00800000E+00
  1.60000000E+01  1.00800000E+00  1.00800000E+00  1.60000000E+01  1.00800000E+00
  1.00800000E+00  1.60000000E+01  1.00800000E+00  1.00800000E+00  1.60000000E+01
  1.00800000E+00  1.00800000E+00  1.60000000E+01  1.00800000E+00  1.00800000E+00
  1.60000000E+01  1.00800000E+00  1.00800000E+00  1.60000000E+01  1.00800000E+00
  1.00800000E+00  1.60000000E+01  1.00800000E+00  1.00800000E+00  1.60000000E+01
  1.00800000E+00  1.00800000E+00  1.60000000E+01  1.00800000E+00  1.00800000E+00
  1.60000000E+01  1.00800000E+00  1.00800000E+00  1.60000000E+01  1.00800000E+00
  1.00800000E+00  1.60000000E+01  1.00800000E+00  1.00800000E+00  1.60000000E+01
  1.00800000E+00  1.00800000E+00  1.60000000E+01  1.00800000E+00  1.00800000E+00
  1.60000000E+01  1.00800000E+00  1.00800000E+00  1.60000000E+01  1.00800000E+00
  1.00800000E+00  1.60000000E+01  1.00800000E+00  1.00800000E+00  1.60000000E+01
  1.00800000E+00  1.00800000E+00  1.60000000E+01  1.00800000E+00  1.00800000E+00
  1.60000000E+01  1.00800000E+00  1.00800000E+00  1.60000000E+01  1.00800000E+00
  1.00800000E+00  1.60000000E+01  1.00800000E+00  1.00800000E+00  1.60000000E+01
  1.00800000E+00  1.00800000E+00  1.60000000E+01  1.00800000E+00  1.00800000E+00
  1.60000000E+01  1.00800000E+00  1.00800000E+00  1.60000000E+01  1.00800000E+00
  1.00800000E+00  1.60000000E+01  1.00800000E+00  1.00800000E+00  1.60000000E+01
  1.00800000E+00  1.00800000E+00  1.60000000E+01  1.00800000E+00  1.00800000E+00
  1.60000000E+01  1.00800000E+00  1.00800000E+00  1.60000000E+01  1.00800000E+00
  1.00800000E+00  1.60000000E+01  1.00800000E+00  1.00800000E+00  1.60000000E+01
  1.00800000E+00  1.00800000E+00  1.60000000E+01  1.00800000E+00  1.00800000E+00
  1.60000000E+01  1.00800000E+00  1.00800000E+00  1.60000000E+01  1.00800000E+00
  1.00800000E+00  1.60000000E+01  1.00800000E+00  1.00800000E+00  1.60000000E+01
  1.00800000E+00  1.00800000E+00  1.60000000E+01  1.00800000E+00  1.00800000E+00
  1.60000000E+01  1.00800000E+00  1.00800000E+00  1.60000000E+01  1.00800000E+00
  1.00800000E+00  1.60000000E+01  1.00800000E+00  1.00800000E+00  1.60000000E+01
  1.00800000E+00  1.00800000E+00  1.60000000E+01  1.00800000E+00  1.00800000E+00
  1.60000000E+01  1.00800000E+00  1.00800000E+00  1.60000000E+01  1.00800000E+00
  1.00800000E+00  1.60000000E+01  1.00800000E+00  1.00800000E+00  1.60000000E+01
  1.00800000E+00  1.00800000E+00  1.60000000E+01  1.00800000E+00  1.00800000E+00
  1.60000000E+01  1.00800000E+00  1.00800000E+00  1.60000000E+01  1.00800000E+00
  1.00800000E+00  1.60000000E+01  1.00800000E+00  1.00800000E+00  1.60000000E+01
  1.00800000E+00  1.00800000E+00  1.60000000E+01  1.00800000E+00  1.00800000E+00
  1.60000000E+01  1.00800000E+00  1.00800000E+00  1.60000000E+01  1.00800000E+00
  1.00800000E+00  1.60000000E+01  1.00800000E+00  1.00800000E+00  1.60000000E+01
  1.00800000E+00  1.00800000E+00  1.60000000E+01  1.00800000E+00  1.00800000E+00
  1.60000000E+01  1.00800000E+00  1.00800000E+00  1.60000000E+01  1.00800000E+00
  1.00800000E+00  1.60000000E+01  1.00800000E+00  1.00800000E+00  1.60000000E+01
  1.00800000E+00  1.00800000E+00  1.60000000E+01  1.00800000E+00  1.00800000E+00
  1.60000000E+01  1.00800000E+00  1.00800000E+00  1.60000000E+01  1.00800000E+00
  1.00800000E+00  1.60000000E+01  1.00800000E+00  1.00800000E+00  1.60000000E+01
  1.00800000E+00  1.00800000E+00  1.60000000E+01  1.00800000E+00  1.00800000E+00
  1.60000000E+01  1.00800000E+00  1.00800000E+00  1.60000000E+01  1.00800000E+00
  1.00800000E+00  1.60000000E+01  1.00800000E+00  1.00800000E+00  1.60000000E+01
  1.00800000E+00  1.00800000E+00  1.60000000E+01  1.00800000E+00  1.00800000E+00
  1.60000000E+01  1.00800000E+00  1.00800000E+00  1.60000000E+01  1.00800000E+00
  1.00800000E+00  1.60000000E+01  1.00800000E+00  1.00800000E+00  1.60000000E+01
  1.00800000E+00  1.00800000E+00  1.60000000E+01  1.00800000E+00  1.00800000E+00
  1.60000000E+01  1.00800000E+00  1.00800000E+00  1.60000000E+01  1.00800000E+00
  1.00800000E+00  1.60000000E+01  1.00800000E+00  1.00800000E+00  1.60000000E+01
  1.00800000E+00  1.00800000E+00  1.60000000E+01  1.00800000E+00  1.00800000E+00
  1.60000000E+01  1.00800000E+00  1.00800000E+00  1.60000000E+01  1.00800000E+00
  1.00800000E+00  1.60000000E+01  1.00800000E+00  1.00800000E+00  1.60000000E+01
  1.00800000E+00  1.00800000E+00  1.60000000E+01  1.00800000E+00  1.00800000E+00
  1.60000000E+01  1.00800000E+00  1.00800000E+00  1.60000000E+01  1.00800000E+00
  1.00800000E+00  1.60000000E+01  1.00800000E+00  1.00800000E+00  1.60000000E+01
  1.00800000E+00  1.00800000E+00  1.60000000E+01  1.00800000E+00  1.00800000E+00
  1.60000000E+01  1.00800000E+00  1.00800000E+00  1.60000000E+01  1.00800000E+00
  1.00800000E+00  1.60000000E+01  1.00800000E+00  1.00800000E+00  1.60000000E+01
  1.00800000E+00  1.00800000E+00  1.60000000E+01  1.00800000E+00  1.00800000E+00
  1.60000000E+01  1.00800000E+00  1.00800000E+00  1.60000000E+01  1.00800000E+00
  1.00800000E+00  1.60000000E+01  1.00800000E+00  1.00800000E+00  1.60000000E+01
  1.00800000E+00  1.00800000E+00  1.60000000E+01  1.00800000E+00  1.00800000E+00
  1.60000000E+01  1.00800000E+00  1.00800000E+00  1.60000000E+01  1.00800000E+00
  1.00800000E+00  1.60000000E+01  1.00800000E+00  1.00800000E+00  1.60000000E+01
  1.00800000E+00  1.00800000E+00  1.60000000E+01  1.00800000E+00  1.00800000E+00
  1.60000000E+01  1.00800000E+00  1.00800000E+00  1.60000000E+01  1.00800000E+00
  1.00800000E+00  1.60000000E+01  1.00800000E+00  1.00800000E+00  1.60000000E+01
  1.00800000E+00  1.00800000E+00  1.60000000E+01  1.00800000E+00  1.00800000E+00
  1.60000000E+01  1.00800000E+00  1.00800000E+00  1.60000000E+01  1.00800000E+00
  1.00800000E+00  1.60000000E+01  1.00800000E+00  1.00800000E+00  1.60000000E+01
  1.00800000E+00  1.00800000E+00  1.60000000E+01  1.00800000E+00  1.00800000E+00
  1.60000000E+01  1.00800000E+00  1.00800000E+00  1.60000000E+01  1.00800000E+00
  1.00800000E+00  1.60000000E+01  1.00800000E+00  1.00800000E+00  1.60000000E+01
  1.00800000E+00  1.00800000E+00  1.60000000E+01  1.00800000E+00  1.00800000E+00
  1.60000000E+01  1.00800000E+00  1.00800000E+00  1.60000000E+01  1.00800000E+00
  1.00800000E+00  1.60000000E+01  1.00800000E+00  1.00800000E+00  1.60000000E+01
  1.00800000E+00  1.00800000E+00  1.60000000E+01  1.00800000E+00  1.00800000E+00
  1.60000000E+01  1.00800000E+00  1.00800000E+00  1.60000000E+01  1.00800000E+00
  1.00800000E+00  1.60000000E+01  1.00800000E+00  1.00800000E+00  1.60000000E+01
  1.00800000E+00  1.00800000E+00  1.60000000E+01  1.00800000E+00  1.00800000E+00
  1.60000000E+01  1.00800000E+00  1.00800000E+00  1.60000000E+01  1.00800000E+00
  1.00800000E+00  1.60000000E+01  1.00800000E+00  1.00800000E+00  1.60000000E+01
  1.00800000E+00  1.00800000E+00  1.60000000E+01  1.00800000E+00  1.00800000E+00
  1.60000000E+01  1.00800000E+00  1.00800000E+00  1.60000000E+01  1.00800000E+00
  1.00800000E+00  1.60000000E+01  1.00800000E+00  1.00800000E+00  1.60000000E+01
  1.00800000E+00  1.00800000E+00  1.60000000E+01  1.00800000E+00  1.00800000E+00
  1.60000000E+01  1.00800000E+00  1.00800000E+00  1.60000000E+01  1.00800000E+00
  1.00800000E+00  1.60000000E+01  1.00800000E+00  1.00800000E+00  1.60000000E+01
  1.00800000E+00  1.00800000E+00  1.60000000E+01  1.00800000E+00  1.00800000E+00
  1.60000000E+01  1.00800000E+00  1.00800000E+00  1.60000000E+01  1.00800000E+00
  1.00800000E+00  1.60000000E+01  1.00800000E+00  1.00800000E+00  1.60000000E+01
  1.00800000E+00  1.00800000E+00  1.60000000E+01  1.00800000E+00  1.00800000E+00
  1.60000000E+01  1.00800000E+00  1.00800000E+00  1.60000000E+01  1.00800000E+00
  1.00800000E+00  1.60000000E+01  1.00800000E+00  1.00800000E+00  1.60000000E+01
  1.00800000E+00  1.00800000E+00  1.60000000E+01  1.00800000E+00  1.00800000E+00
  1.60000000E+01  1.00800000E+00  1.00800000E+00  1.60000000E+01  1.00800000E+00
  1.00800000E+00  1.60000000E+01  1.00800000E+00  1.00800000E+00  1.60000000E+01
  1.00800000E+00  1.00800000E+00  1.60000000E+01  1.00800000E+00  1.00800000E+00
  1.60000000E+01  1.00800000E+00  1.00800000E+00  1.60000000E+01  1.00800000E+00
  1.00800000E+00  1.60000000E+01  1.00800000E+00  1.00800000E+00  1.60000000E+01
  1.00800000E+00  1.00800000E+00  1.60000000E+01  1.00800000E+00  1.00800000E+00
  1.60000000E+01  1.00800000E+00  1.00800000E+00  1.60000000E+01  1.00800000E+00
  1.00800000E+00  1.60000000E+01  1.00800000E+00  1.00800000E+00  1.60000000E+01
  1.00800000E+00  1.00800000E+00  1.60000000E+01  1.00800000E+00  1.00800000E+00
  1.60000000E+01  1.00800000E+00  1.00800000E+00  1.60000000E+01  1.00800000E+00
  1.00800000E+00  1.60000000E+01  1.00800000E+00  1.00800000E+00  1.60000000E+01
  1.00800000E+00  1.00800000E+00  1.60000000E+01  1.00800000E+00  1.00800000E+00
  1.60000000E+01  1.00800000E+00  1.00800000E+00  1.60000000E+01  1.00800000E+00
  1.00800000E+00  1.60000000E+01  1.00800000E+00  1.00800000E+00  1.60000000E+01
  1.00800000E+00  1.00800000E+00  1.60000000E+01  1.00800000E+00  1.00800000E+00
  1.60000000E+01  1.00800000E+00  1.00800000E+00  1.60000000E+01  1.00800000E+00
  1.00800000E+00  1.60000000E+01  1.00800000E+00  1.00800000E+00  1.60000000E+01
  1.00800000E+00  1.00800000E+00  1.60000000E+01  1.00800000E+00  1.00800000E+00
  1.60000000E+01  1.00800000E+00  1.00800000E+00  1.60000000E+01  1.00800000E+00
  1.00800000E+00  1.60000000E+01  1.00800000E+00  1.00800000E+00  1.60000000E+01
  1.00800000E+00  1.00800000E+00  1.60000000E+01  1.00800000E+00  1.00800000E+00
  1.60000000E+01  1.00800000E+00  1.00800000E+00  1.60000000E+01  1.00800000E+00
  1.00800000E+00  1.60000000E+01  1.00800000E+00  1.00800000E+00  1.60000000E+01
  1.00800000E+00  1.00800000E+00  1.60000000E+01  1.00800000E+00  1.00800000E+00
  1.60000000E+01  1.00800000E+00  1.00800000E+00  1.60000000E+01  1.00800000E+00
  1.00800000E+00  1.60000000E+01  1.00800000E+00  1.00800000E+00  1.60000000E+01
  1.00800000E+00  1.00800000E+00  1.60000000E+01  1.00800000E+00  1.00800000E+00
  1.60000000E+01  1.00800000E+00  1.00800000E+00  1.60000000E+01  1.00800000E+00
  1.00800000E+00  1.60000000E+01  1.00800000E+00  1.00800000E+00  1.60000000E+01
  1.00800000E+00  1.00800000E+00  1.60000000E+01  1.00800000E+00  1.00800000E+00
  1.60000000E+01  1.00800000E+00  1.00800000E+00  1.60000000E+01  1.00800000E+00
  1.00800000E+00  1.60000000E+01  1.00800000E+00  1.00800000E+00  1.60000000E+01
  1.00800000E+00  1.00800000E+00  1.60000000E+01  1.00800000E+00  1.00800000E+00
  1.60000000E+01  1.00800000E+00  1.00800000E+00  1.60000000E+01  1.00800000E+00
  1.00800000E+00  1.60000000E+01  1.00800000E+00  1.00800000E+00  1.60000000E+01
  1.00800000E+00  1.00800000E+00  1.60000000E+01  1.00800000E+00  1.00800000E+00
  1.60000000E+01  1.00800000E+00  1.00800000E+00  1.60000000E+01  1.00800000E+00
  1.00800000E+00  1.60000000E+01  1.00800000E+00  1.00800000E+00  1.60000000E+01
  1.00800000E+00  1.00800000E+00  1.60000000E+01  1.00800000E+00  1.00800000E+00
  1.60000000E+01  1.00800000E+00  1.00800000E+00  1.60000000E+01  1.00800000E+00
  1.00800000E+00  1.60000000E+01  1.00800000E+00  1.00800000E+00  1.60000000E+01
  1.00800000E+00  1.00800000E+00  1.60000000E+01  1.00800000E+00  1.00800000E+00
  1.60000000E+01  1.00800000E+00  1.00800000E+00  1.60000000E+01  1.00800000E+00
  1.00800000E+00  1.60000000E+01  1.00800000E+00  1.00800000E+00  1.60000000E+01
  1.00800000E+00  1.00800000E+00  1.60000000E+01  1.00800000E+00  1.00800000E+00
  1.60000000E+01  1.00800000E+00  1.00800000E+00  1.60000000E+01  1.00800000E+00
  1.00800000E+00  1.60000000E+01  1.00800000E+00  1.00800000E+00  1.60000000E+01
  1.00800000E+00  1.00800000E+00  1.60000000E+01  1.00800000E+00  1.00800000E+00
  1.60000000E+01  1.00800000E+00  1.00800000E+00  1.60000000E+01  1.00800000E+00
  1.00800000E+00  1.60000000E+01  1.00800000E+00  1.00800000E+00  1.60000000E+01
  1.00800000E+00  1.00800000E+00  1.60000000E+01  1.00800000E+00  1.00800000E+00
  1.60000000E+01  1.00800000E+00  1.00800000E+00  1.60000000E+01  1.00800000E+00
  1.00800000E+00  1.60000000E+01  1.00800000E+00  1.00800000E+00  1.60000000E+01
  1.00800000E+00  1.00800000E+00  1.60000000E+01  1.00800000E+00  1.00800000E+00
  1.60000000E+01  1.00800000E+00  1.00800000E+00  1.60000000E+01  1.00800000E+00
  1.00800000E+00  1.60000000E+01  1.00800000E+00  1.00800000E+00  1.60000000E+01
  1.00800000E+00  1.00800000E+00  1.60000000E+01  1.00800000E+00  1.00800000E+00
  1.60000000E+01  1.00800000E+00  1.00800000E+00  1.60000000E+01  1.00800000E+00
  1.00800000E+00  1.60000000E+01  1.00800000E+00  1.00800000E+00  1.60000000E+01
  1.00800000E+00  1.00800000E+00  1.60000000E+01  1.00800000E+00  1.00800000E+00
  1.60000000E+01  1.00800000E+00  1.00800000E+00  1.60000000E+01  1.00800000E+00
  1.00800000E+00  1.60000000E+01  1.00800000E+00  1.00800000E+00  1.60000000E+01
  1.00800000E+00  1.00800000E+00  1.60000000E+01  1.00800000E+00  1.00800000E+00
  1.60000000E+01  1.00800000E+00  1.00800000E+00  1.60000000E+01  1.00800000E+00
  1.00800000E+00  1.60000000E+01  1.00800000E+00  1.00800000E+00  1.60000000E+01
  1.00800000E+00  1.00800000E+00  1.60000000E+01  1.00800000E+00  1.00800000E+00
  1.60000000E+01  1.00800000E+00  1.00800000E+00  1.60000000E+01  1.00800000E+00
  1.00800000E+00  1.60000000E+01  1.00800000E+00  1.00800000E+00  1.60000000E+01
  1.00800000E+00  1.00800000E+00  1.60000000E+01  1.00800000E+00  1.00800000E+00
  1.60000000E+01  1.00800000E+00  1.00800000E+00  1.60000000E+01  1.00800000E+00
  1.00800000E+00  1.60000000E+01  1.00800000E+00  1.00800000E+00  1.60000000E+01
  1.00800000E+00  1.00800000E+00  1.60000000E+01  1.00800000E+00  1.00800000E+00
  1.60000000E+01  1.00800000E+00  1.00800000E+00  1.60000000E+01  1.00800000E+00
  1.00800000E+00  1.60000000E+01  1.00800000E+00  1.00800000E+00  1.60000000E+01
  1.00800000E+00  1.00800000E+00  1.60000000E+01  1.00800000E+00  1.00800000E+00
  1.60000000E+01  1.00800000E+00  1.00800000E+00  1.60000000E+01  1.00800000E+00
  1.00800000E+00  1.60000000E+01  1.00800000E+00  1.00800000E+00  1.60000000E+01
  1.00800000E+00  1.00800000E+00  1.60000000E+01  1.00800000E+00  1.00800000E+00
  1.60000000E+01  1.00800000E+00  1.00800000E+00  1.60000000E+01  1.00800000E+00
  1.00800000E+00  1.60000000E+01  1.00800000E+00  1.00800000E+00  1.60000000E+01
  1.00800000E+00  1.00800000E+00  1.60000000E+01  1.00800000E+00  1.00800000E+00
  1.60000000E+01  1.00800000E+00  1.00800000E+00  1.60000000E+01  1.00800000E+00
  1.00800000E+00  1.60000000E+01  1.00800000E+00  1.00800000E+00  1.60000000E+01
  1.00800000E+00  1.00800000E+00  1.60000000E+01  1.00800000E+00  1.00800000E+00
  1.60000000E+01  1.00800000E+00  1.00800000E+00  1.60000000E+01  1.00800000E+00
  1.00800000E+00  1.60000000E+01  1.00800000E+00  1.00800000E+00  1.60000000E+01
  1.00800000E+00  1.00800000E+00  1.60000000E+01  1.00800000E+00  1.00800000E+00
  1.60000000E+01  1.00800000E+00  1.00800000E+00  1.60000000E+01  1.00800000E+00
  1.00800000E+00  1.60000000E+01  1.00800000E+00  1.00800000E+00  1.60000000E+01
  1.00800000E+00  1.00800000E+00  1.60000000E+01  1.00800000E+00  1.00800000E+00
  1.60000000E+01  1.00800000E+00  1.00800000E+00  1.60000000E+01  1.00800000E+00
  1.00800000E+00  1.60000000E+01  1.00800000E+00  1.00800000E+00  1.60000000E+01
  1.00800000E+00  1.00800000E+00  1.60000000E+01  1.00800000E+00  1.00800000E+00
  1.60000000E+01  1.00800000E+00  1.00800000E+00  1.60000000E+01  1.00800000E+00
  1.00800000E+00  1.60000000E+01  1.00800000E+00  1.00800000E+00  1.60000000E+01
  1.00800000E+00  1.00800000E+00  1.60000000E+01  1.00800000E+00  1.00800000E+00
  1.60000000E+01  1.00800000E+00  1.00800000E+00  1.60000000E+01  1.00800000E+00
  1.00800000E+00  1.60000000E+01  1.00800000E+00  1.00800000E+00  1.60000000E+01
  1.00800000E+00  1.00800000E+00  1.60000000E+01  1.00800000E+00  1.00800000E+00
  1.60000000E+01  1.00800000E+00  1.00800000E+00  1.60000000E+01  1.00800000E+00
  1.00800000E+00  1.60000000E+01  1.00800000E+00  1.00800000E+00  1.60000000E+01
  1.00800000E+00  1.00800000E+00  1.60000000E+01  1.00800000E+00  1.00800000E+00
  1.60000000E+01  1.00800000E+00  1.00800000E+00  1.60000000E+01  1.00800000E+00
  1.00800000E+00  1.60000000E+01  1.00800000E+00  1.00800000E+00  1.60000000E+01
  1.00800000E+00  1.00800000E+00  1.60000000E+01  1.00800000E+00  1.00800000E+00
  1.60000000E+01  1.00800000E+00  1.00800000E+00  1.60000000E+01  1.00800000E+00
  1.00800000E+00  1.60000000E+01  1.00800000E+00  1.00800000E+00  1.60000000E+01
  1.00800000E+00  1.00800000E+00  1.60000000E+01  1.00800000E+00  1.00800000E+00
  1.60000000E+01  1.00800000E+00  1.00800000E+00  1.60000000E+01  1.00800000E+00
  1.00800000E+00  1.60000000E+01  1.00800000E+00  1.00800000E+00  1.60000000E+01
  1.00800000E+00  1.00800000E+00  1.60000000E+01  1.00800000E+00  1.00800000E+00
  1.60000000E+01  1.00800000E+00  1.00800000E+00  1.60000000E+01  1.00800000E+00
  1.00800000E+00  1.60000000E+01  1.00800000E+00  1.00800000E+00  1.60000000E+01
  1.00800000E+00  1.00800000E+00  1.60000000E+01  1.00800000E+00  1.00800000E+00
  1.60000000E+01  1.00800000E+00  1.00800000E+00  1.60000000E+01  1.00800000E+00
  1.00800000E+00  1.60000000E+01  1.00800000E+00  1.00800000E+00  1.60000000E+01
  1.00800000E+00  1.00800000E+00  1.60000000E+01  1.00800000E+00  1.00800000E+00
  1.60000000E+01  1.00800000E+00  1.00800000E+00  1.60000000E+01  1.00800000E+00
  1.00800000E+00  1.60000000E+01  1.00800000E+00  1.00800000E+00  1.60000000E+01
  1.00800000E+00  1.00800000E+00  1.60000000E+01  1.00800000E+00  1.00800000E+00
  1.60000000E+01  1.00800000E+00  1.00800000E+00  1.60000000E+01  1.00800000E+00
  1.00800000E+00  1.60000000E+01  1.00800000E+00  1.00800000E+00  1.60000000E+01
  1.00800000E+00  1.00800000E+00  1.60000000E+01  1.00800000E+00  1.00800000E+00
  1.60000000E+01  1.00800000E+00  1.00800000E+00  1.60000000E+01  1.00800000E+00
  1.00800000E+00  1.60000000E+01  1.00800000E+00  1.00800000E+00  1.60000000E+01
  1.00800000E+00  1.00800000E+00  1.60000000E+01  1.00800000E+00  1.00800000E+00
  1.60000000E+01  1.00800000E+00  1.00800000E+00  1.60000000E+01  1.00800000E+00
  1.00800000E+00  1.60000000E+01  1.00800000E+00  1.00800000E+00  1.60000000E+01
  1.00800000E+00  1.00800000E+00  1.60000000E+01  1.00800000E+00  1.00800000E+00
  1.60000000E+01  1.00800000E+00  1.00800000E+00  1.60000000E+01  1.00800000E+00
  1.00800000E+00  1.60000000E+01  1.00800000E+00  1.00800000E+00  1.60000000E+01
  1.00800000E+00  1.00800000E+00  1.60000000E+01  1.00800000E+00  1.00800000E+00
  1.60000000E+01  1.00800000E+00  1.00800000E+00  1.60000000E+01  1.00800000E+00
  1.00800000E+00  1.60000000E+01  1.00800000E+00  1.00800000E+00  1.60000000E+01
  1.00800000E+00  1.00800000E+00  1.60000000E+01  1.00800000E+00  1.00800000E+00
  1.60000000E+01  1.00800000E+00  1.00800000E+00  1.60000000E+01  1.00800000E+00
  1.00800000E+00  1.60000000E+01  1.00800000E+00  1.00800000E+00  1.60000000E+01
  1.00800000E+00  1.00800000E+00  1.60000000E+01  1.00800000E+00  1.00800000E+00
  1.60000000E+01  1.00800000E+00  1.00800000E+00  1.60000000E+01  1.00800000E+00
  1.00800000E+00  1.60000000E+01  1.00800000E+00  1.00800000E+00  1.60000000E+01
  1.00800000E+00  1.00800000E+00  1.60000000E+01  1.00800000E+00  1.00800000E+00
  1.60000000E+01  1.00800000E+00  1.00800000E+00  1.60000000E+01  1.00800000E+00
  1.00800000E+00  1.60000000E+01  1.00800000E+00  1.00800000E+00  1.60000000E+01
  1.00800000E+00  1.00800000E+00  1.60000000E+01  1.00800000E+00  1.00800000E+00
  1.60000000E+01  1.00800000E+00  1.00800000E+00  1.60000000E+01  1.00800000E+00
  1.00800000E+00  1.60000000E+01  1.00800000E+00  1.00800000E+00  1.60000000E+01
  1.00800000E+00  1.00800000E+00  1.60000000E+01  1.00800000E+00  1.00800000E+00
  1.60000000E+01  1.00800000E+00  1.00800000E+00  1.60000000E+01  1.00800000E+00
  1.00800000E+00  1.60000000E+01  1.00800000E+00  1.00800000E+00  1.60000000E+01
  1.00800000E+00  1.00800000E+00  1.60000000E+01  1.00800000E+00  1.00800000E+00
  1.60000000E+01  1.00800000E+00  1.00800000E+00  1.60000000E+01  1.00800000E+00
  1.00800000E+00  1.60000000E+01  1.00800000E+00  1.00800000E+00  1.60000000E+01
  1.00800000E+00  1.00800000E+00  1.60000000E+01  1.00800000E+00  1.00800000E+00
  1.60000000E+01  1.00800000E+00  1.00800000E+00  1.60000000E+01  1.00800000E+00
  1.00800000E+00  1.60000000E+01  1.00800000E+00  1.00800000E+00  1.60000000E+01
  1.00800000E+00  1.00800000E+00  1.60000000E+01  1.00800000E+00  1.00800000E+00
  1.60000000E+01  1.00800000E+00  1.00800000E+00  1.60000000E+01  1.00800000E+00
  1.00800000E+00  1.60000000E+01  1.00800000E+00  1.00800000E+00  1.60000000E+01
  1.00800000E+00  1.00800000E+00  1.60000000E+01  1.00800000E+00  1.00800000E+00
  1.60000000E+01  1.00800000E+00  1.00800000E+00  1.60000000E+01  1.00800000E+00
  1.00800000E+00  1.60000000E+01  1.00800000E+00  1.00800000E+00  1.60000000E+01
  1.00800000E+00  1.00800000E+00  1.60000000E+01  1.00800000E+00  1.00800000E+00
  1.60000000E+01  1.00800000E+00  1.00800000E+00  1.60000000E+01  1.00800000E+00
  1.00800000E+00  1.60000000E+01  1.00800000E+00  1.00800000E+00  1.60000000E+01
  1.00800000E+00  1.00800000E+00  1.60000000E+01  1.00800000E+00  1.00800000E+00
  1.60000000E+01  1.00800000E+00  1.00800000E+00  1.60000000E+01  1.00800000E+00
  1.00800000E+00  1.60000000E+01  1.00800000E+00  1.00800000E+00  1.60000000E+01
  1.00800000E+00  1.00800000E+00  1.60000000E+01  1.00800000E+00  1.00800000E+00
  1.60000000E+01  1.00800000E+00  1.00800000E+00  1.60000000E+01  1.00800000E+00
  1.00800000E+00  1.60000000E+01  1.00800000E+00  1.00800000E+00  1.60000000E+01
  1.00800000E+00  1.00800000E+00  1.60000000E+01  1.00800000E+00  1.00800000E+00
  1.60000000E+01  1.00800000E+00  1.00800000E+00  1.60000000E+01  1.00800000E+00
  1.00800000E+00  1.60000000E+01  1.00800000E+00  1.00800000E+00  1.60000000E+01
  1.00800000E+00  1.00800000E+00  1.60000000E+01  1.00800000E+00  1.00800000E+00
  1.60000000E+01  1.00800000E+00  1.00800000E+00  1.60000000E+01  1.00800000E+00
  1.00800000E+00  1.60000000E+01  1.00800000E+00  1.00800000E+00  1.60000000E+01
  1.00800000E+00  1.00800000E+00  1.60000000E+01  1.00800000E+00  1.00800000E+00
  1.60000000E+01  1.00800000E+00  1.00800000E+00  1.60000000E+01  1.00800000E+00
  1.00800000E+00  1.60000000E+01  1.00800000E+00  1.00800000E+00  1.60000000E+01
  1.00800000E+00  1.00800000E+00  1.60000000E+01  1.00800000E+00  1.00800000E+00
  1.60000000E+01  1.00800000E+00  1.00800000E+00  1.60000000E+01  1.00800000E+00
  1.00800000E+00  1.60000000E+01  1.00800000E+00  1.00800000E+00  1.60000000E+01
  1.00800000E+00  1.00800000E+00  1.60000000E+01  1.00800000E+00  1.00800000E+00
  1.60000000E+01  1.00800000E+00  1.00800000E+00  1.60000000E+01  1.00800000E+00
  1.00800000E+00  1.60000000E+01  1.00800000E+00  1.00800000E+00  1.60000000E+01
  1.00800000E+00  1.00800000E+00  1.60000000E+01  1.00800000E+00  1.00800000E+00
  1.60000000E+01  1.00800000E+00  1.00800000E+00  1.60000000E+01  1.00800000E+00
  1.00800000E+00  1.60000000E+01  1.00800000E+00  1.00800000E+00  1.60000000E+01
  1.00800000E+00  1.00800000E+00  1.60000000E+01  1.00800000E+00  1.00800000E+00
  1.60000000E+01  1.00800000E+00  1.00800000E+00  1.60000000E+01  1.00800000E+00
  1.00800000E+00  1.60000000E+01  1.00800000E+00  1.00800000E+00  1.60000000E+01
  1.00800000E+00  1.00800000E+00  1.60000000E+01  1.00800000E+00  1.00800000E+00
  1.60000000E+01  1.00800000E+00  1.00800000E+00  1.60000000E+01  1.00800000E+00
  1.00800000E+00  1.60000000E+01  1.00800000E+00  1.00800000E+00  1.60000000E+01
  1.00800000E+00  1.00800000E+00  1.60000000E+01  1.00800000E+00  1.00800000E+00
  1.60000000E+01  1.00800000E+00  1.00800000E+00  1.60000000E+01  1.00800000E+00
  1.00800000E+00  1.60000000E+01  1.00800000E+00  1.00800000E+00  1.60000000E+01
  1.00800000E+00  1.00800000E+00  1.60000000E+01  1.00800000E+00  1.00800000E+00
  1.60000000E+01  1.00800000E+00  1.00800000E+00  1.60000000E+01  1.00800000E+00
  1.00800000E+00  1.60000000E+01  1.00800000E+00  1.00800000E+00  1.60000000E+01
  1.00800000E+00  1.00800000E+00  1.60000000E+01  1.00800000E+00  1.00800000E+00
  1.60000000E+01  1.00800000E+00  1.00800000E+00  1.60000000E+01  1.00800000E+00
  1.00800000E+00  1.60000000E+01  1.00800000E+00  1.00800000E+00  1.60000000E+01
  1.00800000E+00  1.00800000E+00  1.60000000E+01  1.00800000E+00  1.00800000E+00
  1.60000000E+01  1.00800000E+00  1.00800000E+00  1.60000000E+01  1.00800000E+00
  1.00800000E+00  1.60000000E+01  1.00800000E+00  1.00800000E+00  1.60000000E+01
  1.00800000E+00  1.00800000E+00  1.60000000E+01  1.00800000E+00  1.00800000E+00
  1.60000000E+01  1.00800000E+00  1.00800000E+00  1.60000000E+01  1.00800000E+00
  1.00800000E+00  1.60000000E+01  1.00800000E+00  1.00800000E+00  1.60000000E+01
  1.00800000E+00  1.00800000E+00  1.60000000E+01  1.00800000E+00  1.00800000E+00
  1.60000000E+01  1.00800000E+00  1.00800000E+00  1.60000000E+01  1.00800000E+00
  1.00800000E+00  1.60000000E+01  1.00800000E+00  1.00800000E+00  1.60000000E+01
  1.00800000E+00  1.00800000E+00  1.60000000E+01  1.00800000E+00  1.00800000E+00
  1.60000000E+01  1.00800000E+00  1.00800000E+00  1.60000000E+01  1.00800000E+00
  1.00800000E+00  1.60000000E+01  1.00800000E+00  1.00800000E+00  1.60000000E+01
  1.00800000E+00  1.00800000E+00  1.60000000E+01  1.00800000E+00  1.00800000E+00
  1.60000000E+01  1.00800000E+00  1.00800000E+00  1.60000000E+01  1.00800000E+00
  1.00800000E+00  1.60000000E+01  1.00800000E+00  1.00800000E+00  1.60000000E+01
  1.00800000E+00  1.00800000E+00  1.60000000E+01  1.00800000E+00  1.00800000E+00
  1.60000000E+01  1.00800000E+00  1.00800000E+00  1.60000000E+01  1.00800000E+00
  1.00800000E+00  1.60000000E+01  1.00800000E+00  1.00800000E+00  1.60000000E+01
  1.00800000E+00  1.00800000E+00  1.60000000E+01  1.00800000E+00  1.00800000E+00
  1.60000000E+01  1.00800000E+00  1.00800000E+00  1.60000000E+01  1.00800000E+00
  1.00800000E+00  1.60000000E+01  1.00800000E+00  1.00800000E+00  1.60000000E+01
  1.00800000E+00  1.00800000E+00  1.60000000E+01  1.00800000E+00  1.00800000E+00
  1.60000000E+01  1.00800000E+00  1.00800000E+00  1.60000000E+01  1.00800000E+00
  1.00800000E+00  1.60000000E+01  1.00800000E+00  1.00800000E+00  1.60000000E+01
  1.00800000E+00  1.00800000E+00  1.60000000E+01  1.00800000E+00  1.00800000E+00
  1.60000000E+01  1.00800000E+00  1.00800000E+00  1.60000000E+01  1.00800000E+00
  1.00800000E+00  1.60000000E+01  1.00800000E+00  1.00800000E+00  1.60000000E+01
  1.00800000E+00  1.00800000E+00  1.60000000E+01  1.00800000E+00  1.00800000E+00
  1.60000000E+01  1.00800000E+00  1.00800000E+00  1.60000000E+01  1.00800000E+00
  1.00800000E+00  1.60000000E+01  1.00800000E+00  1.00800000E+00  1.60000000E+01
  1.00800000E+00  1.00800000E+00  1.60000000E+01  1.00800000E+00  1.00800000E+00
  1.60000000E+01  1.00800000E+00  1.00800000E+00  1.60000000E+01  1.00800000E+00
  1.00800000E+00  1.60000000E+01  1.00800000E+00  1.00800000E+00  1.60000000E+01
  1.00800000E+00  1.00800000E+00  1.60000000E+01  1.00800000E+00  1.00800000E+00
  1.60000000E+01  1.00800000E+00  1.00800000E+00  1.60000000E+01  1.00800000E+00
  1.00800000E+00  1.60000000E+01  1.00800000E+00  1.00800000E+00  1.60000000E+01
  1.00800000E+00  1.00800000E+00  1.60000000E+01  1.00800000E+00  1.00800000E+00
  1.60000000E+01  1.00800000E+00  1.00800000E+00  1.60000000E+01  1.00800000E+00
  1.00800000E+00  1.60000000E+01  1.00800000E+00  1.00800000E+00  1.60000000E+01
  1.00800000E+00  1.00800000E+00  1.60000000E+01  1.00800000E+00  1.00800000E+00
  1.60000000E+01  1.00800000E+00  1.00800000E+00  1.60000000E+01  1.00800000E+00
  1.00800000E+00  1.60000000E+01  1.00800000E+00  1.00800000E+00  1.60000000E+01
  1.00800000E+00  1.00800000E+00  1.60000000E+01  1.00800000E+00  1.00800000E+00
  1.60000000E+01  1.00800000E+00  1.00800000E+00  1.60000000E+01  1.00800000E+00
  1.00800000E+00  1.60000000E+01  1.00800000E+00  1.00800000E+00  1.60000000E+01
  1.00800000E+00  1.00800000E+00  1.60000000E+01  1.00800000E+00  1.00800000E+00
  1.60000000E+01  1.00800000E+00  1.00800000E+00  1.60000000E+01  1.00800000E+00
  1.00800000E+00  1.60000000E+01  1.00800000E+00  1.00800000E+00  1.60000000E+01
  1.00800000E+00  1.00800000E+00  1.60000000E+01  1.00800000E+00  1.00800000E+00
  1.60000000E+01  1.00800000E+00  1.00800000E+00  1.60000000E+01  1.00800000E+00
  1.00800000E+00  1.60000000E+01  1.00800000E+00  1.00800000E+00  1.60000000E+01
  1.00800000E+00  1.00800000E+00  1.60000000E+01  1.00800000E+00  1.00800000E+00
  1.60000000E+01  1.00800000E+00  1.00800000E+00  1.60000000E+01  1.00800000E+00
  1.00800000E+00  1.60000000E+01  1.00800000E+00  1.00800000E+00  1.60000000E+01
  1.00800000E+00  1.00800000E+00  1.60000000E+01  1.00800000E+00  1.00800000E+00
  1.60000000E+01  1.00800000E+00  1.00800000E+00  1.60000000E+01  1.00800000E+00
  1.00800000E+00  1.60000000E+01  1.00800000E+00  1.00800000E+00  1.60000000E+01
  1.00800000E+00  1.00800000E+00  1.60000000E+01  1.00800000E+00  1.00800000E+00
  1.60000000E+01  1.00800000E+00  1.00800000E+00  1.60000000E+01  1.00800000E+00
  1.00800000E+00  1.60000000E+01  1.00800000E+00  1.00800000E+00  1.60000000E+01
  1.00800000E+00  1.00800000E+00  1.60000000E+01  1.00800000E+00  1.00800000E+00
  1.60000000E+01  1.00800000E+00  1.00800000E+00  1.60000000E+01  1.00800000E+00
  1.00800000E+00  1.60000000E+01  1.00800000E+00  1.00800000E+00  1.60000000E+01
  1.00800000E+00  1.00800000E+00  1.60000000E+01  1.00800000E+00  1.00800000E+00
  1.60000000E+01  1.00800000E+00  1.00800000E+00  1.60000000E+01  1.00800000E+00
  1.00800000E+00  1.60000000E+01  1.00800000E+00  1.00800000E+00  1.60000000E+01
  1.00800000E+00  1.00800000E+00  1.60000000E+01  1.00800000E+00  1.00800000E+00
  1.60000000E+01  1.00800000E+00  1.00800000E+00  1.60000000E+01  1.00800000E+00
  1.00800000E+00  1.60000000E+01  1.00800000E+00  1.00800000E+00  1.60000000E+01
  1.00800000E+00  1.00800000E+00  1.60000000E+01  1.00800000E+00  1.00800000E+00
  1.60000000E+01  1.00800000E+00  1.00800000E+00  1.60000000E+01  1.00800000E+00
  1.00800000E+00  1.60000000E+01  1.00800000E+00  1.00800000E+00  1.60000000E+01
  1.00800000E+00  1.00800000E+00  1.60000000E+01  1.00800000E+00  1.00800000E+00
  1.60000000E+01  1.00800000E+00  1.00800000E+00  1.60000000E+01  1.00800000E+00
  1.00800000E+00  1.60000000E+01  1.00800000E+00  1.00800000E+00  1.60000000E+01
  1.00800000E+00  1.00800000E+00  1.60000000E+01  1.00800000E+00  1.00800000E+00
  1.60000000E+01  1.00800000E+00  1.00800000E+00  1.60000000E+01  1.00800000E+00
  1.00800000E+00  1.60000000E+01  1.00800000E+00  1.00800000E+00  1.60000000E+01
  1.00800000E+00  1.00800000E+00  1.60000000E+01  1.00800000E+00  1.00800000E+00
  1.60000000E+01  1.00800000E+00  1.00800000E+00  1.60000000E+01  1.00800000E+00
  1.00800000E+00  1.60000000E+01  1.00800000E+00  1.00800000E+00  1.60000000E+01
  1.00800000E+00  1.00800000E+00  1.60000000E+01  1.00800000E+00  1.00800000E+00
  1.60000000E+01  1.00800000E+00  1.00800000E+00  1.60000000E+01  1.00800000E+00
  1.00800000E+00  1.60000000E+01  1.00800000E+00  1.00800000E+00  1.60000000E+01
  1.00800000E+00  1.00800000E+00  1.60000000E+01  1.00800000E+00  1.00800000E+00
  1.60000000E+01  1.00800000E+00  1.00800000E+00  1.60000000E+01  1.00800000E+00
  1.00800000E+00  1.60000000E+01  1.00800000E+00  1.00800000E+00  1.60000000E+01
  1.00800000E+00  1.00800000E+00  1.60000000E+01  1.00800000E+00  1.00800000E+00
  1.60000000E+01  1.00800000E+00  1.00800000E+00  1.60000000E+01  1.00800000E+00
  1.00800000E+00  1.60000000E+01  1.00800000E+00  1.00800000E+00  1.60000000E+01
  1.00800000E+00  1.00800000E+00  1.60000000E+01  1.00800000E+00  1.00800000E+00
  1.60000000E+01  1.00800000E+00  1.00800000E+00  1.60000000E+01  1.00800000E+00
  1.00800000E+00  1.60000000E+01  1.00800000E+00  1.00800000E+00  1.60000000E+01
  1.00800000E+00  1.00800000E+00  1.60000000E+01  1.00800000E+00  1.00800000E+00
  1.60000000E+01  1.00800000E+00  1.00800000E+00  1.60000000E+01  1.00800000E+00
  1.00800000E+00  1.60000000E+01  1.00800000E+00  1.00800000E+00  1.60000000E+01
  1.00800000E+00  1.00800000E+00  1.60000000E+01  1.00800000E+00  1.00800000E+00
  1.60000000E+01  1.00800000E+00  1.00800000E+00  1.60000000E+01  1.00800000E+00
  1.00800000E+00  1.60000000E+01  1.00800000E+00  1.00800000E+00  1.60000000E+01
  1.00800000E+00  1.00800000E+00  1.60000000E+01  1.00800000E+00  1.00800000E+00
  1.60000000E+01  1.00800000E+00  1.00800000E+00  1.60000000E+01  1.00800000E+00
  1.00800000E+00  1.60000000E+01  1.00800000E+00  1.00800000E+00  1.60000000E+01
  1.00800000E+00  1.00800000E+00  1.60000000E+01  1.00800000E+00  1.00800000E+00
  1.60000000E+01  1.00800000E+00  1.00800000E+00  1.60000000E+01  1.00800000E+00
  1.00800000E+00  1.60000000E+01  1.00800000E+00  1.00800000E+00  1.60000000E+01
  1.00800000E+00  1.00800000E+00  1.60000000E+01  1.00800000E+00  1.00800000E+00
  1.60000000E+01  1.00800000E+00  1.00800000E+00  1.60000000E+01  1.00800000E+00
  1.00800000E+00  1.60000000E+01  1.00800000E+00  1.00800000E+00  1.60000000E+01
  1.00800000E+00  1.00800000E+00  1.60000000E+01  1.00800000E+00  1.00800000E+00
  1.60000000E+01  1.00800000E+00  1.00800000E+00  1.60000000E+01  1.00800000E+00
  1.00800000E+00  1.60000000E+01  1.00800000E+00  1.00800000E+00  1.60000000E+01
  1.00800000E+00  1.00800000E+00  1.60000000E+01  1.00800000E+00  1.00800000E+00
  1.60000000E+01  1.00800000E+00  1.00800000E+00  1.60000000E+01  1.00800000E+00
  1.00800000E+00  1.60000000E+01  1.00800000E+00  1.00800000E+00  1.60000000E+01
  1.00800000E+00  1.00800000E+00  1.60000000E+01  1.00800000E+00  1.00800000E+00
  1.60000000E+01  1.00800000E+00  1.00800000E+00  1.60000000E+01  1.00800000E+00
  1.00800000E+00  1.60000000E+01  1.00800000E+00  1.00800000E+00  1.60000000E+01
  1.00800000E+00  1.00800000E+00  1.60000000E+01  1.00800000E+00  1.00800000E+00
  1.60000000E+01  1.00800000E+00  1.00800000E+00  1.60000000E+01  1.00800000E+00
  1.00800000E+00  1.60000000E+01  1.00800000E+00  1.00800000E+00  1.60000000E+01
  1.00800000E+00  1.00800000E+00  1.60000000E+01  1.00800000E+00  1.00800000E+00
  1.60000000E+01  1.00800000E+00  1.00800000E+00  1.60000000E+01  1.00800000E+00
  1.00800000E+00  1.60000000E+01  1.00800000E+00  1.00800000E+00  1.60000000E+01
  1.00800000E+00  1.00800000E+00  1.60000000E+01  1.00800000E+00  1.00800000E+00
  1.60000000E+01  1.00800000E+00  1.00800000E+00  1.60000000E+01  1.00800000E+00
  1.00800000E+00  1.60000000E+01  1.00800000E+00  1.00800000E+00  1.60000000E+01
  1.00800000E+00  1.00800000E+00  1.60000000E+01  1.00800000E+00  1.00800000E+00
  1.60000000E+01  1.00800000E+00  1.00800000E+00  1.60000000E+01  1.00800000E+00
  1.00800000E+00  1.60000000E+01  1.00800000E+00  1.00800000E+00  1.60000000E+01
  1.00800000E+00  1.00800000E+00  1.60000000E+01  1.00800000E+00  1.00800000E+00
  1.60000000E+01  1.00800000E+00  1.00800000E+00  1.60000000E+01  1.00800000E+00
  1.00800000E+00  1.60000000E+01  1.00800000E+00  1.00800000E+00  1.60000000E+01
  1.00800000E+00  1.00800000E+00  1.60000000E+01  1.00800000E+00  1.00800000E+00
  1.60000000E+01  1.00800000E+00  1.00800000E+00  1.60000000E+01  1.00800000E+00
  1.00800000E+00  1.60000000E+01  1.00800000E+00  1.00800000E+00  1.60000000E+01
  1.00800000E+00  1.00800000E+00  1.60000000E+01  1.00800000E+00  1.00800000E+00
  1.60000000E+01  1.00800000E+00  1.00800000E+00  1.60000000E+01  1.00800000E+00
  1.00800000E+00  1.60000000E+01  1.00800000E+00  1.00800000E+00  1.60000000E+01
  1.00800000E+00  1.00800000E+00  1.60000000E+01  1.00800000E+00  1.00800000E+00
  1.60000000E+01  1.00800000E+00  1.00800000E+00  1.60000000E+01  1.00800000E+00
  1.00800000E+00  1.60000000E+01  1.00800000E+00  1.00800000E+00  1.60000000E+01
  1.00800000E+00  1.00800000E+00  1.60000000E+01  1.00800000E+00  1.00800000E+00
  1.60000000E+01  1.00800000E+00  1.00800000E+00  1.60000000E+01  1.00800000E+00
  1.00800000E+00  1.60000000E+01  1.00800000E+00  1.00800000E+00  1.60000000E+01
  1.00800000E+00  1.00800000E+00  1.60000000E+01  1.00800000E+00  1.00800000E+00
  1.60000000E+01  1.00800000E+00  1.00800000E+00  1.60000000E+01  1.00800000E+00
  1.00800000E+00  1.60000000E+01  1.00800000E+00  1.00800000E+00  1.60000000E+01
  1.00800000E+00  1.00800000E+00  1.60000000E+01  1.00800000E+00  1.00800000E+00
  1.60000000E+01  1.00800000E+00  1.00800000E+00  1.60000000E+01  1.00800000E+00
  1.00800000E+00  1.60000000E+01  1.00800000E+00  1.00800000E+00  1.60000000E+01
  1.00800000E+00  1.00800000E+00  1.60000000E+01  1.00800000E+00  1.00800000E+00
  1.60000000E+01  1.00800000E+00  1.00800000E+00  1.60000000E+01  1.00800000E+00
  1.00800000E+00  1.60000000E+01  1.00800000E+00  1.00800000E+00  1.60000000E+01
  1.00800000E+00  1.00800000E+00  1.60000000E+01  1.00800000E+00  1.00800000E+00
  1.60000000E+01  1.00800000E+00  1.00800000E+00  1.60000000E+01  1.00800000E+00
  1.00800000E+00  1.60000000E+01  1.00800000E+00  1.00800000E+00  1.60000000E+01
  1.00800000E+00  1.00800000E+00  1.60000000E+01  1.00800000E+00  1.00800000E+00
  1.60000000E+01  1.00800000E+00  1.00800000E+00  1.60000000E+01  1.00800000E+00
  1.00800000E+00  1.60000000E+01  1.00800000E+00  1.00800000E+00  1.60000000E+01
  1.00800000E+00  1.00800000E+00  1.60000000E+01  1.00800000E+00  1.00800000E+00
  1.60000000E+01  1.00800000E+00  1.00800000E+00  1.60000000E+01  1.00800000E+00
  1.00800000E+00  1.60000000E+01  1.00800000E+00  1.00800000E+00  1.60000000E+01
  1.00800000E+00  1.00800000E+00  1.60000000E+01  1.00800000E+00  1.00800000E+00
  1.60000000E+01  1.00800000E+00  1.00800000E+00  1.60000000E+01  1.00800000E+00
  1.00800000E+00  1.60000000E+01  1.00800000E+00  1.00800000E+00  1.60000000E+01
  1.00800000E+00  1.00800000E+00  1.60000000E+01  1.00800000E+00  1.00800000E+00
  1.60000000E+01  1.00800000E+00  1.00800000E+00  1.60000000E+01  1.00800000E+00
  1.00800000E+00  1.60000000E+01  1.00800000E+00  1.00800000E+00  1.60000000E+01
  1.00800000E+00  1.00800000E+00  1.60000000E+01  1.00800000E+00  1.00800000E+00
  1.60000000E+01  1.00800000E+00  1.00800000E+00  1.60000000E+01  1.00800000E+00
  1.00800000E+00  1.60000000E+01  1.00800000E+00  1.00800000E+00  1.60000000E+01
  1.00800000E+00  1.00800000E+00  1.60000000E+01  1.00800000E+00  1.00800000E+00
  1.60000000E+01  1.00800000E+00  1.00800000E+00  1.60000000E+01  1.00800000E+00
  1.00800000E+00  1.60000000E+01  1.00800000E+00  1.00800000E+00  1.60000000E+01
  1.00800000E+00  1.00800000E+00  1.60000000E+01  1.00800000E+00  1.00800000E+00
  1.60000000E+01  1.00800000E+00  1.00800000E+00  1.60000000E+01  1.00800000E+00
  1.00800000E+00  1.60000000E+01  1.00800000E+00  1.00800000E+00  1.60000000E+01
  1.00800000E+00  1.00800000E+00  1.60000000E+01  1.00800000E+00  1.00800000E+00
  1.60000000E+01  1.00800000E+00  1.00800000E+00  1.60000000E+01  1.00800000E+00
  1.00800000E+00  1.60000000E+01  1.00800000E+00  1.00800000E+00  1.60000000E+01
  1.00800000E+00  1.00800000E+00  1.60000000E+01  1.00800000E+00  1.00800000E+00
  1.60000000E+01  1.00800000E+00  1.00800000E+00  1.60000000E+01  1.00800000E+00
  1.00800000E+00  1.60000000E+01  1.00800000E+00  1.00800000E+00  1.60000000E+01
  1.00800000E+00  1.00800000E+00  1.60000000E+01  1.00800000E+00  1.00800000E+00
  1.60000000E+01  1.00800000E+00  1.00800000E+00  1.60000000E+01  1.00800000E+00
  1.00800000E+00  1.60000000E+01  1.00800000E+00  1.00800000E+00  1.60000000E+01
  1.00800000E+00  1.00800000E+00  1.60000000E+01  1.00800000E+00  1.00800000E+00
  1.60000000E+01  1.00800000E+00  1.00800000E+00  1.60000000E+01  1.00800000E+00
  1.00800000E+00  1.60000000E+01  1.00800000E+00  1.00800000E+00  1.60000000E+01
  1.00800000E+00  1.00800000E+00  1.60000000E+01  1.00800000E+00  1.00800000E+00
  1.60000000E+01  1.00800000E+00  1.00800000E+00  1.60000000E+01  1.00800000E+00
  1.00800000E+00  1.60000000E+01  1.00800000E+00  1.00800000E+00  1.60000000E+01
  1.00800000E+00  1.00800000E+00  1.60000000E+01  1.00800000E+00  1.00800000E+00
  1.60000000E+01  1.00800000E+00  1.00800000E+00  1.60000000E+01  1.00800000E+00
  1.00800000E+00  1.60000000E+01  1.00800000E+00  1.00800000E+00  1.60000000E+01
  1.00800000E+00  1.00800000E+00  1.60000000E+01  1.00800000E+00  1.00800000E+00
  1.60000000E+01  1.00800000E+00  1.00800000E+00  1.60000000E+01  1.00800000E+00
  1.00800000E+00  1.60000000E+01  1.00800000E+00  1.00800000E+00  1.60000000E+01
  1.00800000E+00  1.00800000E+00  1.60000000E+01  1.00800000E+00  1.00800000E+00
  1.60000000E+01  1.00800000E+00  1.00800000E+00  1.60000000E+01  1.00800000E+00
  1.00800000E+00  1.60000000E+01  1.00800000E+00  1.00800000E+00  1.60000000E+01
  1.00800000E+00  1.00800000E+00  1.60000000E+01  1.00800000E+00  1.00800000E+00
  1.60000000E+01  1.00800000E+00  1.00800000E+00  1.60000000E+01  1.00800000E+00
  1.00800000E+00  1.60000000E+01  1.00800000E+00  1.00800000E+00  1.60000000E+01
  1.00800000E+00  1.00800000E+00  1.60000000E+01  1.00800000E+00  1.00800000E+00
  1.60000000E+01  1.00800000E+00  1.00800000E+00  1.60000000E+01  1.00800000E+00
  1.00800000E+00  1.60000000E+01  1.00800000E+00  1.00800000E+00  1.60000000E+01
  1.00800000E+00  1.00800000E+00  1.60000000E+01  1.00800000E+00  1.00800000E+00
  1.60000000E+01  1.00800000E+00  1.00800000E+00  1.60000000E+01  1.00800000E+00
  1.00800000E+00  1.60000000E+01  1.00800000E+00  1.00800000E+00  1.60000000E+01
  1.00800000E+00  1.00800000E+00  1.60000000E+01  1.00800000E+00  1.00800000E+00
  1.60000000E+01  1.00800000E+00  1.00800000E+00  1.60000000E+01  1.00800000E+00
  1.00800000E+00  1.60000000E+01  1.00800000E+00  1.00800000E+00  1.60000000E+01
  1.00800000E+00  1.00800000E+00  1.60000000E+01  1.00800000E+00  1.00800000E+00
  1.60000000E+01  1.00800000E+00  1.00800000E+00  1.60000000E+01  1.00800000E+00
  1.00800000E+00  1.60000000E+01  1.00800000E+00  1.00800000E+00  1.60000000E+01
  1.00800000E+00  1.00800000E+00  1.60000000E+01  1.00800000E+00  1.00800000E+00
  1.60000000E+01  1.00800000E+00  1.00800000E+00  1.60000000E+01  1.00800000E+00
  1.00800000E+00  1.60000000E+01  1.00800000E+00  1.00800000E+00  1.60000000E+01
  1.00800000E+00  1.00800000E+00  1.60000000E+01  1.00800000E+00  1.00800000E+00
  1.60000000E+01  1.00800000E+00  1.00800000E+00  1.60000000E+01  1.00800000E+00
  1.00800000E+00  1.60000000E+01  1.00800000E+00  1.00800000E+00  1.60000000E+01
  1.00800000E+00  1.00800000E+00  1.60000000E+01  1.00800000E+00  1.00800000E+00
  1.60000000E+01  1.00800000E+00  1.00800000E+00  1.60000000E+01  1.00800000E+00
  1.00800000E+00  1.60000000E+01  1.00800000E+00  1.00800000E+00  1.60000000E+01
  1.00800000E+00  1.00800000E+00  1.60000000E+01  1.00800000E+00  1.00800000E+00
  1.60000000E+01  1.00800000E+00  1.00800000E+00  1.60000000E+01  1.00800000E+00
  1.00800000E+00  1.60000000E+01  1.00800000E+00  1.00800000E+00  1.60000000E+01
  1.00800000E+00  1.00800000E+00  1.60000000E+01  1.00800000E+00  1.00800000E+00
  1.60000000E+01  1.00800000E+00  1.00800000E+00  1.60000000E+01  1.00800000E+00
  1.00800000E+00  1.60000000E+01  1.00800000E+00  1.00800000E+00  1.60000000E+01
  1.00800000E+00  1.00800000E+00  1.60000000E+01  1.00800000E+00  1.00800000E+00
  1.60000000E+01  1.00800000E+00  1.00800000E+00  1.60000000E+01  1.00800000E+00
  1.00800000E+00  1.60000000E+01  1.00800000E+00  1.00800000E+00  1.60000000E+01
  1.00800000E+00  1.00800000E+00  1.60000000E+01  1.00800000E+00  1.00800000E+00
  1.60000000E+01  1.00800000E+00  1.00800000E+00  1.60000000E+01  1.00800000E+00
  1.00800000E+00  1.60000000E+01  1.00800000E+00  1.00800000E+00  1.60000000E+01
  1.00800000E+00  1.00800000E+00  1.60000000E+01  1.00800000E+00  1.00800000E+00
  1.60000000E+01  1.00800000E+00  1.00800000E+00  1.60000000E+01  1.00800000E+00
  1.00800000E+00  1.60000000E+01  1.00800000E+00  1.00800000E+00  1.60000000E+01
  1.00800000E+00  1.00800000E+00  1.60000000E+01  1.00800000E+00  1.00800000E+00
  1.60000000E+01  1.00800000E+00  1.00800000E+00  1.60000000E+01  1.00800000E+00
  1.00800000E+00  1.60000000E+01  1.00800000E+00  1.00800000E+00  1.60000000E+01
  1.00800000E+00  1.00800000E+00  1.60000000E+01  1.00800000E+00  1.00800000E+00
  1.60000000E+01  1.00800000E+00  1.00800000E+00  1.60000000E+01  1.00800000E+00
  1.00800000E+00  1.60000000E+01  1.00800000E+00  1.00800000E+00  1.60000000E+01
  1.00800000E+00  1.00800000E+00  1.60000000E+01  1.00800000E+00  1.00800000E+00
  1.60000000E+01  1.00800000E+00  1.00800000E+00  1.60000000E+01  1.00800000E+00
  1.00800000E+00  1.60000000E+01  1.00800000E+00  1.00800000E+00  1.60000000E+01
  1.00800000E+00  1.00800000E+00  1.60000000E+01  1.00800000E+00  1.00800000E+00
  1.60000000E+01  1.00800000E+00  1.00800000E+00  1.60000000E+01  1.00800000E+00
  1.00800000E+00  1.60000000E+01  1.00800000E+00  1.00800000E+00  1.60000000E+01
  1.00800000E+00  1.00800000E+00  1.60000000E+01  1.00800000E+00  1.00800000E+00
  1.60000000E+01  1.00800000E+00  1.00800000E+00  1.60000000E+01  1.00800000E+00
  1.00800000E+00  1.60000000E+01  1.00800000E+00  1.00800000E+00  1.60000000E+01
  1.00800000E+00  1.00800000E+00  1.60000000E+01  1.00800000E+00  1.00800000E+00
  1.60000000E+01  1.00800000E+00  1.00800000E+00  1.60000000E+01  1.00800000E+00
  1.00800000E+00  1.60000000E+01  1.00800000E+00  1.00800000E+00  1.60000000E+01
  1.00800000E+00  1.00800000E+00  1.60000000E+01  1.00800000E+00  1.00800000E+00
  1.60000000E+01  1.00800000E+00  1.00800000E+00  1.60000000E+01  1.00800000E+00
  1.00800000E+00  1.60000000E+01  1.00800000E+00  1.00800000E+00  1.60000000E+01
  1.00800000E+00  1.00800000E+00  1.60000000E+01  1.00800000E+00  1.00800000E+00
  1.60000000E+01  1.00800000E+00  1.00800000E+00  1.60000000E+01  1.00800000E+00
  1.00800000E+00  1.60000000E+01  1.00800000E+00  1.00800000E+00  1.60000000E+01
  1.00800000E+00  1.00800000E+00  1.60000000E+01  1.00800000E+00  1.00800000E+00
  1.60000000E+01  1.00800000E+00  1.00800000E+00  1.60000000E+01  1.00800000E+00
  1.00800000E+00  1.60000000E+01  1.00800000E+00  1.00800000E+00  1.60000000E+01
  1.00800000E+00  1.00800000E+00  1.60000000E+01  1.00800000E+00  1.00800000E+00
  1.60000000E+01  1.00800000E+00  1.00800000E+00  1.60000000E+01  1.00800000E+00
  1.00800000E+00  1.60000000E+01  1.00800000E+00  1.00800000E+00  1.60000000E+01
  1.00800000E+00  1.00800000E+00  1.60000000E+01  1.00800000E+00  1.00800000E+00
  1.60000000E+01  1.00800000E+00  1.00800000E+00  1.60000000E+01  1.00800000E+00
  1.00800000E+00  1.60000000E+01  1.00800000E+00  1.00800000E+00  1.60000000E+01
  1.00800000E+00  1.00800000E+00  1.60000000E+01  1.00800000E+00  1.00800000E+00
  1.60000000E+01  1.00800000E+00  1.00800000E+00  1.60000000E+01  1.00800000E+00
  1.00800000E+00  1.60000000E+01  1.00800000E+00  1.00800000E+00  1.60000000E+01
  1.00800000E+00  1.00800000E+00  1.60000000E+01  1.00800000E+00  1.00800000E+00
  1.60000000E+01  1.00800000E+00  1.00800000E+00  1.60000000E+01  1.00800000E+00
  1.00800000E+00  1.60000000E+01  1.00800000E+00  1.00800000E+00  1.60000000E+01
  1.00800000E+00  1.00800000E+00  1.60000000E+01  1.00800000E+00  1.00800000E+00
  1.60000000E+01  1.00800000E+00  1.00800000E+00  1.60000000E+01  1.00800000E+00
  1.00800000E+00  1.60000000E+01  1.00800000E+00  1.00800000E+00  1.60000000E+01
  1.00800000E+00  1.00800000E+00  1.60000000E+01  1.00800000E+00  1.00800000E+00
  1.60000000E+01  1.00800000E+00  1.00800000E+00  1.60000000E+01  1.00800000E+00
  1.00800000E+00  1.60000000E+01  1.00800000E+00  1.00800000E+00  1.60000000E+01
  1.00800000E+00  1.00800000E+00  1.60000000E+01  1.00800000E+00  1.00800000E+00
  1.60000000E+01  1.00800000E+00  1.00800000E+00  1.60000000E+01  1.00800000E+00
  1.00800000E+00  1.60000000E+01  1.00800000E+00  1.00800000E+00  1.60000000E+01
  1.00800000E+00  1.00800000E+00  1.60000000E+01  1.00800000E+00  1.00800000E+00
  1.60000000E+01  1.00800000E+00  1.00800000E+00  1.60000000E+01  1.00800000E+00
  1.00800000E+00  1.60000000E+01  1.00800000E+00  1.00800000E+00  1.60000000E+01
  1.00800000E+00  1.00800000E+00  1.60000000E+01  1.00800000E+00  1.00800000E+00
  1.60000000E+01  1.00800000E+00  1.00800000E+00  1.60000000E+01  1.00800000E+00
  1.00800000E+00  1.60000000E+01  1.00800000E+00  1.00800000E+00  1.60000000E+01
  1.00800000E+00  1.00800000E+00  1.60000000E+01  1.00800000E+00  1.00800000E+00
  1.60000000E+01  1.00800000E+00  1.00800000E+00  1.60000000E+01  1.00800000E+00
  1.00800000E+00  1.60000000E+01  1.00800000E+00  1.00800000E+00  1.60000000E+01
  1.00800000E+00  1.00800000E+00  1.60000000E+01  1.00800000E+00  1.00800000E+00
  1.60000000E+01  1.00800000E+00  1.00800000E+00  1.60000000E+01  1.00800000E+00
  1.00800000E+00  1.60000000E+01  1.00800000E+00  1.00800000E+00  1.60000000E+01
  1.00800000E+00  1.00800000E+00  1.60000000E+01  1.00800000E+00  1.00800000E+00
  1.60000000E+01  1.00800000E+00  1.00800000E+00  1.60000000E+01  1.00800000E+00
  1.00800000E+00  1.60000000E+01  1.00800000E+00  1.00800000E+00  1.60000000E+01
  1.00800000E+00  1.00800000E+00  1.60000000E+01  1.00800000E+00  1.00800000E+00
  1.60000000E+01  1.00800000E+00  1.00800000E+00  1.60000000E+01  1.00800000E+00
  1.00800000E+00  1.60000000E+01  1.00800000E+00  1.00800000E+00  1.60000000E+01
  1.00800000E+00  1.00800000E+00  1.60000000E+01  1.00800000E+00  1.00800000E+00
  1.60000000E+01  1.00800000E+00  1.00800000E+00  1.60000000E+01  1.00800000E+00
  1.00800000E+00  1.60000000E+01  1.00800000E+00  1.00800000E+00  1.60000000E+01
  1.00800000E+00  1.00800000E+00  1.60000000E+01  1.00800000E+00  1.00800000E+00
  1.60000000E+01  1.00800000E+00  1.00800000E+00  1.60000000E+01  1.00800000E+00
  1.00800000E+00  1.60000000E+01  1.00800000E+00  1.00800000E+00  1.60000000E+01
  1.00800000E+00  1.00800000E+00  1.60000000E+01  1.00800000E+00  1.00800000E+00
  1.60000000E+01  1.00800000E+00  1.00800000E+00  1.60000000E+01  1.00800000E+00
  1.00800000E+00  1.60000000E+01  1.00800000E+00  1.00800000E+00  1.60000000E+01
  1.00800000E+00  1.00800000E+00  1.60000000E+01  1.00800000E+00  1.00800000E+00
  1.60000000E+01  1.00800000E+00  1.00800000E+00  1.60000000E+01  1.00800000E+00
  1.00800000E+00  1.60000000E+01  1.00800000E+00  1.00800000E+00  1.60000000E+01
  1.00800000E+00  1.00800000E+00  1.60000000E+01  1.00800000E+00  1.00800000E+00
  1.60000000E+01  1.00800000E+00  1.00800000E+00  1.60000000E+01  1.00800000E+00
  1.00800000E+00  1.60000000E+01  1.00800000E+00  1.00800000E+00  1.60000000E+01
  1.00800000E+00  1.00800000E+00  1.60000000E+01  1.00800000E+00  1.00800000E+00
  1.60000000E+01  1.00800000E+00  1.00800000E+00  1.60000000E+01  1.00800000E+00
  1.00800000E+00  1.60000000E+01  1.00800000E+00  1.00800000E+00  1.60000000E+01
  1.00800000E+00  1.00800000E+00  1.60000000E+01  1.00800000E+00  1.00800000E+00
  1.60000000E+01  1.00800000E+00  1.00800000E+00  1.60000000E+01  1.00800000E+00
  1.00800000E+00  1.60000000E+01  1.00800000E+00  1.00800000E+00  1.60000000E+01
  1.00800000E+00  1.00800000E+00  1.60000000E+01  1.00800000E+00  1.00800000E+00
  1.60000000E+01  1.00800000E+00  1.00800000E+00  1.60000000E+01  1.00800000E+00
  1.00800000E+00  1.60000000E+01  1.00800000E+00  1.00800000E+00  1.60000000E+01
  1.00800000E+00  1.00800000E+00  1.60000000E+01  1.00800000E+00  1.00800000E+00
  1.60000000E+01  1.00800000E+00  1.00800000E+00  1.60000000E+01  1.00800000E+00
  1.00800000E+00  1.60000000E+01  1.00800000E+00  1.00800000E+00  1.60000000E+01
  1.00800000E+00  1.00800000E+00  1.60000000E+01  1.00800000E+00  1.00800000E+00
  1.60000000E+01  1.00800000E+00  1.00800000E+00  1.60000000E+01  1.00800000E+00
  1.00800000E+00  1.60000000E+01  1.00800000E+00  1.00800000E+00  1.60000000E+01
  1.00800000E+00  1.00800000E+00  1.60000000E+01  1.00800000E+00  1.00800000E+00
  1.60000000E+01  1.00800000E+00  1.00800000E+00  1.60000000E+01  1.00800000E+00
  1.00800000E+00  1.60000000E+01  1.00800000E+00  1.00800000E+00  1.60000000E+01
  1.00800000E+00  1.00800000E+00  1.60000000E+01  1.00800000E+00  1.00800000E+00
  1.60000000E+01  1.00800000E+00  1.00800000E+00  1.60000000E+01  1.00800000E+00
  1.00800000E+00  1.60000000E+01  1.00800000E+00  1.00800000E+00  1.60000000E+01
  1.00800000E+00  1.00800000E+00  1.60000000E+01  1.00800000E+00  1.00800000E+00
  1.60000000E+01  1.00800000E+00  1.00800000E+00  1.60000000E+01  1.00800000E+00
  1.00800000E+00  1.60000000E+01  1.00800000E+00  1.00800000E+00  1.60000000E+01
  1.00800000E+00  1.00800000E+00  1.60000000E+01  1.00800000E+00  1.00800000E+00
  1.60000000E+01  1.00800000E+00  1.00800000E+00  1.60000000E+01  1.00800000E+00
  1.00800000E+00  1.60000000E+01  1.00800000E+00  1.00800000E+00  1.60000000E+01
  1.00800000E+00  1.00800000E+00  1.60000000E+01  1.00800000E+00  1.00800000E+00
  1.60000000E+01  1.00800000E+00  1.00800000E+00  1.60000000E+01  1.00800000E+00
  1.00800000E+00  1.60000000E+01  1.00800000E+00  1.00800000E+00  1.60000000E+01
  1.00800000E+00  1.00800000E+00  1.60000000E+01  1.00800000E+00  1.00800000E+00
  1.60000000E+01  1.00800000E+00  1.00800000E+00  1.60000000E+01  1.00800000E+00
  1.00800000E+00  1.60000000E+01  1.00800000E+00  1.00800000E+00  1.60000000E+01
  1.00800000E+00  1.00800000E+00  1.60000000E+01  1.00800000E+00  1.00800000E+00
  1.60000000E+01  1.00800000E+00  1.00800000E+00  1.60000000E+01  1.00800000E+00
  1.00800000E+00  1.60000000E+01  1.00800000E+00  1.00800000E+00  1.60000000E+01
  1.00800000E+00  1.00800000E+00  1.60000000E+01  1.00800000E+00  1.00800000E+00
  1.60000000E+01  1.00800000E+00  1.00800000E+00  1.60000000E+01  1.00800000E+00
  1.00800000E+00  1.60000000E+01  1.00800000E+00  1.00800000E+00  1.60000000E+01
  1.00800000E+00  1.00800000E+00  1.60000000E+01  1.00800000E+00  1.00800000E+00
  1.60000000E+01  1.00800000E+00  1.00800000E+00  1.60000000E+01  1.00800000E+00
  1.00800000E+00  1.60000000E+01  1.00800000E+00  1.00800000E+00  1.60000000E+01
  1.00800000E+00  1.00800000E+00  1.60000000E+01  1.00800000E+00  1.00800000E+00
  1.60000000E+01  1.00800000E+00  1.00800000E+00  1.60000000E+01  1.00800000E+00
  1.00800000E+00  1.60000000E+01  1.00800000E+00  1.00800000E+00  1.60000000E+01
  1.00800000E+00  1.00800000E+00  1.60000000E+01  1.00800000E+00  1.00800000E+00
  1.60000000E+01  1.00800000E+00  1.00800000E+00  1.60000000E+01  1.00800000E+00
  1.00800000E+00  1.60000000E+01  1.00800000E+00  1.00800000E+00  1.60000000E+01
  1.00800000E+00  1.00800000E+00  1.60000000E+01  1.00800000E+00  1.00800000E+00
  1.60000000E+01  1.00800000E+00  1.00800000E+00  1.60000000E+01  1.00800000E+00
  1.00800000E+00  1.60000000E+01  1.00800000E+00  1.00800000E+00  1.60000000E+01
  1.00800000E+00  1.00800000E+00  1.60000000E+01  1.00800000E+00  1.00800000E+00
  1.60000000E+01  1.00800000E+00  1.00800000E+00  1.60000000E+01  1.00800000E+00
  1.00800000E+00  1.60000000E+01  1.00800000E+00  1.00800000E+00  1.60000000E+01
  1.00800000E+00  1.00800000E+00  1.60000000E+01  1.00800000E+00  1.00800000E+00
  1.60000000E+01  1.00800000E+00  1.00800000E+00  1.60000000E+01  1.00800000E+00
  1.00800000E+00  1.60000000E+01  1.00800000E+00  1.00800000E+00  1.60000000E+01
  1.00800000E+00  1.00800000E+00  1.60000000E+01  1.00800000E+00  1.00800000E+00
  1.60000000E+01  1.00800000E+00  1.00800000E+00  1.60000000E+01  1.00800000E+00
  1.00800000E+00  1.60000000E+01  1.00800000E+00  1.00800000E+00  1.60000000E+01
  1.00800000E+00  1.00800000E+00  1.60000000E+01  1.00800000E+00  1.00800000E+00
  1.60000000E+01  1.00800000E+00  1.00800000E+00  1.60000000E+01  1.00800000E+00
  1.00800000E+00  1.60000000E+01  1.00800000E+00  1.00800000E+00  1.60000000E+01
  1.00800000E+00  1.00800000E+00  1.60000000E+01  1.00800000E+00  1.00800000E+00
  1.60000000E+01  1.00800000E+00  1.00800000E+00  1.60000000E+01  1.00800000E+00
  1.00800000E+00  1.60000000E+01  1.00800000E+00  1.00800000E+00  1.60000000E+01
  1.00800000E+00  1.00800000E+00  1.60000000E+01  1.00800000E+00  1.00800000E+00
  1.60000000E+01  1.00800000E+00  1.00800000E+00  1.60000000E+01  1.00800000E+00
  1.00800000E+00  1.60000000E+01  1.00800000E+00  1.00800000E+00  1.60000000E+01
  1.00800000E+00  1.00800000E+00  1.60000000E+01  1.00800000E+00  1.00800000E+00
  1.60000000E+01  1.00800000E+00  1.00800000E+00  1.60000000E+01  1.00800000E+00
  1.00800000E+00  1.60000000E+01  1.00800000E+00  1.00800000E+00  1.60000000E+01
  1.00800000E+00  1.00800000E+00  1.60000000E+01  1.00800000E+00  1.00800000E+00
  1.60000000E+01  1.00800000E+00  1.00800000E+00  1.60000000E+01  1.00800000E+00
  1.00800000E+00  1.60000000E+01  1.00800000E+00  1.00800000E+00  1.60000000E+01
  1.00800000E+00  1.00800000E+00  1.60000000E+01  1.00800000E+00  1.00800000E+00
  1.60000000E+01  1.00800000E+00  1.00800000E+00  1.60000000E+01  1.00800000E+00
  1.00800000E+00  1.60000000E+01  1.00800000E+00  1.00800000E+00  1.60000000E+01
  1.00800000E+00  1.00800000E+00  1.60000000E+01  1.00800000E+00  1.00800000E+00
  1.60000000E+01  1.00800000E+00  1.00800000E+00  1.60000000E+01  1.00800000E+00
  1.00800000E+00  1.60000000E+01  1.00800000E+00  1.00800000E+00  1.60000000E+01
  1.00800000E+00  1.00800000E+00  1.60000000E+01  1.00800000E+00  1.00800000E+00
  1.60000000E+01  1.00800000E+00  1.00800000E+00  1.60000000E+01  1.00800000E+00
  1.00800000E+00  1.60000000E+01  1.00800000E+00  1.00800000E+00  1.60000000E+01
  1.00800000E+00  1.00800000E+00  1.60000000E+01  1.00800000E+00  1.00800000E+00
  1.60000000E+01  1.00800000E+00  1.00800000E+00  1.60000000E+01  1.00800000E+00
  1.00800000E+00  1.60000000E+01  1.00800000E+00  1.00800000E+00  1.60000000E+01
  1.00800000E+00  1.00800000E+00  1.60000000E+01  1.00800000E+00  1.00800000E+00
  1.60000000E+01  1.00800000E+00  1.00800000E+00  1.60000000E+01  1.00800000E+00
  1.00800000E+00  1.60000000E+01  1.00800000E+00  1.00800000E+00  1.60000000E+01
  1.00800000E+00  1.00800000E+00  1.60000000E+01  1.00800000E+00  1.00800000E+00
  1.60000000E+01  1.00800000E+00  1.00800000E+00  1.60000000E+01  1.00800000E+00
  1.00800000E+00  1.60000000E+01  1.00800000E+00  1.00800000E+00  1.60000000E+01
  1.00800000E+00  1.00800000E+00  1.60000000E+01  1.00800000E+00  1.00800000E+00
  1.60000000E+01  1.00800000E+00  1.00800000E+00  1.60000000E+01  1.00800000E+00
  1.00800000E+00  1.60000000E+01  1.00800000E+00  1.00800000E+00  1.60000000E+01
  1.00800000E+00  1.00800000E+00  1.60000000E+01  1.00800000E+00  1.00800000E+00
  1.60000000E+01  1.00800000E+00  1.00800000E+00  1.60000000E+01  1.00800000E+00
  1.00800000E+00  1.60000000E+01  1.00800000E+00  1.00800000E+00  1.60000000E+01
  1.00800000E+00  1.00800000E+00  1.60000000E+01  1.00800000E+00  1.00800000E+00
  1.60000000E+01  1.00800000E+00  1.00800000E+00  1.60000000E+01  1.00800000E+00
  1.00800000E+00  1.60000000E+01  1.00800000E+00  1.00800000E+00  1.60000000E+01
  1.00800000E+00  1.00800000E+00  1.60000000E+01  1.00800000E+00  1.00800000E+00
  1.60000000E+01  1.00800000E+00  1.00800000E+00  1.60000000E+01  1.00800000E+00
  1.00800000E+00  1.60000000E+01  1.00800000E+00  1.00800000E+00  1.60000000E+01
  1.00800000E+00  1.00800000E+00  1.60000000E+01  1.00800000E+00  1.00800000E+00
  1.60000000E+01  1.00800000E+00  1.00800000E+00  1.60000000E+01  1.00800000E+00
  1.00800000E+00  1.60000000E+01  1.00800000E+00  1.00800000E+00  1.60000000E+01
  1.00800000E+00  1.00800000E+00  1.60000000E+01  1.00800000E+00  1.00800000E+00
  1.60000000E+01  1.00800000E+00  1.00800000E+00  1.60000000E+01  1.00800000E+00
  1.00800000E+00  1.60000000E+01  1.00800000E+00  1.00800000E+00  1.60000000E+01
  1.00800000E+00  1.00800000E+00  1.60000000E+01  1.00800000E+00  1.00800000E+00
  1.60000000E+01  1.00800000E+00  1.00800000E+00  1.60000000E+01  1.00800000E+00
  1.00800000E+00  1.60000000E+01  1.00800000E+00  1.00800000E+00  1.60000000E+01
  1.00800000E+00  1.00800000E+00  1.60000000E+01  1.00800000E+00  1.00800000E+00
  1.60000000E+01  1.00800000E+00  1.00800000E+00  1.60000000E+01  1.00800000E+00
  1.00800000E+00  1.60000000E+01  1.00800000E+00  1.00800000E+00  1.60000000E+01
  1.00800000E+00  1.00800000E+00  1.60000000E+01  1.00800000E+00  1.00800000E+00
  1.60000000E+01  1.00800000E+00  1.00800000E+00  1.60000000E+01  1.00800000E+00
  1.00800000E+00  1.60000000E+01  1.00800000E+00  1.00800000E+00  1.60000000E+01
  1.00800000E+00  1.00800000E+00  1.60000000E+01  1.00800000E+00  1.00800000E+00
  1.60000000E+01  1.00800000E+00  1.00800000E+00  1.60000000E+01  1.00800000E+00
  1.00800000E+00  1.60000000E+01  1.00800000E+00  1.00800000E+00  1.60000000E+01
  1.00800000E+00  1.00800000E+00  1.60000000E+01  1.00800000E+00  1.00800000E+00
  1.60000000E+01  1.00800000E+00  1.00800000E+00  1.60000000E+01  1.00800000E+00
  1.00800000E+00  1.60000000E+01  1.00800000E+00  1.00800000E+00  1.60000000E+01
  1.00800000E+00  1.00800000E+00  1.60000000E+01  1.00800000E+00  1.00800000E+00
  1.60000000E+01  1.00800000E+00  1.00800000E+00  1.60000000E+01  1.00800000E+00
  1.00800000E+00  1.60000000E+01  1.00800000E+00  1.00800000E+00  1.60000000E+01
  1.00800000E+00  1.00800000E+00  1.60000000E+01  1.00800000E+00  1.00800000E+00
  1.60000000E+01  1.00800000E+00  1.00800000E+00  1.60000000E+01  1.00800000E+00
  1.00800000E+00  1.60000000E+01  1.00800000E+00  1.00800000E+00  1.60000000E+01
  1.00800000E+00  1.00800000E+00  1.60000000E+01  1.00800000E+00  1.00800000E+00
  1.60000000E+01  1.00800000E+00  1.00800000E+00  1.60000000E+01  1.00800000E+00
  1.00800000E+00  1.60000000E+01  1.00800000E+00  1.00800000E+00  1.60000000E+01
  1.00800000E+00  1.00800000E+00  1.60000000E+01  1.00800000E+00  1.00800000E+00
  1.60000000E+01  1.00800000E+00  1.00800000E+00  1.60000000E+01  1.00800000E+00
  1.00800000E+00  1.60000000E+01  1.00800000E+00  1.00800000E+00  1.60000000E+01
  1.00800000E+00  1.00800000E+00  1.60000000E+01  1.00800000E+00  1.00800000E+00
  1.60000000E+01  1.00800000E+00  1.00800000E+00  1.60000000E+01  1.00800000E+00
  1.00800000E+00  1.60000000E+01  1.00800000E+00  1.00800000E+00  1.60000000E+01
  1.00800000E+00  1.00800000E+00  1.60000000E+01  1.00800000E+00  1.00800000E+00
  1.60000000E+01  1.00800000E+00  1.00800000E+00  1.60000000E+01  1.00800000E+00
  1.00800000E+00  1.60000000E+01  1.00800000E+00  1.00800000E+00  1.60000000E+01
  1.00800000E+00  1.00800000E+00  1.60000000E+01  1.00800000E+00  1.00800000E+00
  1.60000000E+01  1.00800000E+00  1.00800000E+00  1.60000000E+01  1.00800000E+00
  1.00800000E+00  1.60000000E+01  1.00800000E+00  1.00800000E+00  1.60000000E+01
  1.00800000E+00  1.00800000E+00  1.60000000E+01  1.00800000E+00  1.00800000E+00
  1.60000000E+01  1.00800000E+00  1.00800000E+00  1.60000000E+01  1.00800000E+00
  1.00800000E+00  1.60000000E+01  1.00800000E+00  1.00800000E+00  1.60000000E+01
  1.00800000E+00  1.00800000E+00  1.60000000E+01  1.00800000E+00  1.00800000E+00
  1.60000000E+01  1.00800000E+00  1.00800000E+00  1.60000000E+01  1.00800000E+00
  1.00800000E+00  1.60000000E+01  1.00800000E+00  1.00800000E+00  1.60000000E+01
  1.00800000E+00  1.00800000E+00  1.60000000E+01  1.00800000E+00  1.00800000E+00
  1.60000000E+01  1.00800000E+00  1.00800000E+00  1.60000000E+01  1.00800000E+00
  1.00800000E+00  1.60000000E+01  1.00800000E+00  1.00800000E+00  1.60000000E+01
  1.00800000E+00  1.00800000E+00  1.60000000E+01  1.00800000E+00  1.00800000E+00
  1.60000000E+01  1.00800000E+00  1.00800000E+00  1.60000000E+01  1.00800000E+00
  1.00800000E+00  1.60000000E+01  1.00800000E+00  1.00800000E+00  1.60000000E+01
  1.00800000E+00  1.00800000E+00  1.60000000E+01  1.00800000E+00  1.00800000E+00
  1.60000000E+01  1.00800000E+00  1.00800000E+00  1.60000000E+01  1.00800000E+00
  1.00800000E+00  1.60000000E+01  1.00800000E+00  1.00800000E+00  1.60000000E+01
  1.00800000E+00  1.00800000E+00  1.60000000E+01  1.00800000E+00  1.00800000E+00
  1.60000000E+01  1.00800000E+00  1.00800000E+00  1.60000000E+01  1.00800000E+00
  1.00800000E+00  1.60000000E+01  1.00800000E+00  1.00800000E+00  1.60000000E+01
  1.00800000E+00  1.00800000E+00  1.60000000E+01  1.00800000E+00  1.00800000E+00
  1.60000000E+01  1.00800000E+00  1.00800000E+00  1.60000000E+01  1.00800000E+00
  1.00800000E+00  1.60000000E+01  1.00800000E+00  1.00800000E+00  1.60000000E+01
  1.00800000E+00  1.00800000E+00  1.60000000E+01  1.00800000E+00  1.00800000E+00
  1.60000000E+01  1.00800000E+00  1.00800000E+00  1.60000000E+01  1.00800000E+00
  1.00800000E+00  1.60000000E+01  1.00800000E+00  1.00800000E+00  1.60000000E+01
  1.00800000E+00  1.00800000E+00  1.60000000E+01  1.00800000E+00  1.00800000E+00
  1.60000000E+01  1.00800000E+00  1.00800000E+00  1.60000000E+01  1.00800000E+00
  1.00800000E+00  1.60000000E+01  1.00800000E+00  1.00800000E+00  1.60000000E+01
  1.00800000E+00  1.00800000E+00  1.60000000E+01  1.00800000E+00  1.00800000E+00
  1.60000000E+01  1.00800000E+00  1.00800000E+00  1.60000000E+01  1.00800000E+00
  1.00800000E+00  1.60000000E+01  1.00800000E+00  1.00800000E+00  1.60000000E+01
  1.00800000E+00  1.00800000E+00  1.60000000E+01  1.00800000E+00  1.00800000E+00
  1.60000000E+01  1.00800000E+00  1.00800000E+00  1.60000000E+01  1.00800000E+00
  1.00800000E+00  1.60000000E+01  1.00800000E+00  1.00800000E+00  1.60000000E+01
  1.00800000E+00  1.00800000E+00  1.60000000E+01  1.00800000E+00  1.00800000E+00
  1.60000000E+01  1.00800000E+00  1.00800000E+00  1.60000000E+01  1.00800000E+00
  1.00800000E+00  1.60000000E+01  1.00800000E+00  1.00800000E+00  1.60000000E+01
  1.00800000E+00  1.00800000E+00  1.60000000E+01  1.00800000E+00  1.00800000E+00
  1.60000000E+01  1.00800000E+00  1.00800000E+00  1.60000000E+01  1.00800000E+00
  1.00800000E+00  1.60000000E+01  1.00800000E+00  1.00800000E+00  1.60000000E+01
  1.00800000E+00  1.00800000E+00  1.60000000E+01  1.00800000E+00  1.00800000E+00
  1.60000000E+01  1.00800000E+00  1.00800000E+00  1.60000000E+01  1.00800000E+00
  1.00800000E+00  1.60000000E+01  1.00800000E+00  1.00800000E+00  1.60000000E+01
  1.00800000E+00  1.00800000E+00  1.60000000E+01  1.00800000E+00  1.00800000E+00
  1.60000000E+01  1.00800000E+00  1.00800000E+00  1.60000000E+01  1.00800000E+00
  1.00800000E+00  1.60000000E+01  1.00800000E+00  1.00800000E+00  1.60000000E+01
  1.00800000E+00  1.00800000E+00  1.60000000E+01  1.00800000E+00  1.00800000E+00
  1.60000000E+01  1.00800000E+00  1.00800000E+00  1.60000000E+01  1.00800000E+00
  1.00800000E+00  1.60000000E+01  1.00800000E+00  1.00800000E+00  1.60000000E+01
  1.00800000E+00  1.00800000E+00  1.60000000E+01  1.00800000E+00  1.00800000E+00
  1.60000000E+01  1.00800000E+00  1.00800000E+00  1.60000000E+01  1.00800000E+00
  1.00800000E+00  1.60000000E+01  1.00800000E+00  1.00800000E+00  1.60000000E+01
  1.00800000E+00  1.00800000E+00  1.60000000E+01  1.00800000E+00  1.00800000E+00
  1.60000000E+01  1.00800000E+00  1.00800000E+00  1.60000000E+01  1.00800000E+00
  1.00800000E+00  1.60000000E+01  1.00800000E+00  1.00800000E+00  1.60000000E+01
  1.00800000E+00  1.00800000E+00  1.60000000E+01  1.00800000E+00  1.00800000E+00
  1.60000000E+01  1.00800000E+00  1.00800000E+00  1.60000000E+01  1.00800000E+00
  1.00800000E+00  1.60000000E+01  1.00800000E+00  1.00800000E+00  1.60000000E+01
  1.00800000E+00  1.00800000E+00  1.60000000E+01  1.00800000E+00  1.00800000E+00
  1.60000000E+01  1.00800000E+00  1.00800000E+00  1.60000000E+01  1.00800000E+00
  1.00800000E+00  1.60000000E+01  1.00800000E+00  1.00800000E+00  1.60000000E+01
  1.00800000E+00  1.00800000E+00  1.60000000E+01  1.00800000E+00  1.00800000E+00
  1.60000000E+01  1.00800000E+00  1.00800000E+00  1.60000000E+01  1.00800000E+00
  1.00800000E+00  1.60000000E+01  1.00800000E+00  1.00800000E+00  1.60000000E+01
  1.00800000E+00  1.00800000E+00  1.60000000E+01  1.00800000E+00  1.00800000E+00
  1.60000000E+01  1.00800000E+00  1.00800000E+00  1.60000000E+01  1.00800000E+00
  1.00800000E+00  1.60000000E+01  1.00800000E+00  1.00800000E+00  1.60000000E+01
  1.00800000E+00  1.00800000E+00  1.60000000E+01  1.00800000E+00  1.00800000E+00
  1.60000000E+01  1.00800000E+00  1.00800000E+00  1.60000000E+01  1.00800000E+00
  1.00800000E+00  1.60000000E+01  1.00800000E+00  1.00800000E+00  1.60000000E+01
  1.00800000E+00  1.00800000E+00  1.60000000E+01  1.00800000E+00  1.00800000E+00
  1.60000000E+01  1.00800000E+00  1.00800000E+00  1.60000000E+01  1.00800000E+00
  1.00800000E+00  1.60000000E+01  1.00800000E+00  1.00800000E+00  1.60000000E+01
  1.00800000E+00  1.00800000E+00  1.60000000E+01  1.00800000E+00  1.00800000E+00
  1.60000000E+01  1.00800000E+00  1.00800000E+00  1.60000000E+01  1.00800000E+00
  1.00800000E+00  1.60000000E+01  1.00800000E+00  1.00800000E+00  1.60000000E+01
  1.00800000E+00  1.00800000E+00  1.60000000E+01  1.00800000E+00  1.00800000E+00
  1.60000000E+01  1.00800000E+00  1.00800000E+00  1.60000000E+01  1.00800000E+00
  1.00800000E+00  1.60000000E+01  1.00800000E+00  1.00800000E+00  1.60000000E+01
  1.00800000E+00  1.00800000E+00  1.60000000E+01  1.00800000E+00  1.00800000E+00
  1.60000000E+01  1.00800000E+00  1.00800000E+00  1.60000000E+01  1.00800000E+00
  1.00800000E+00  1.60000000E+01  1.00800000E+00  1.00800000E+00  1.60000000E+01
  1.00800000E+00  1.00800000E+00  1.60000000E+01  1.00800000E+00  1.00800000E+00
  1.60000000E+01  1.00800000E+00  1.00800000E+00  1.60000000E+01  1.00800000E+00
  1.00800000E+00  1.60000000E+01  1.00800000E+00  1.00800000E+00  1.60000000E+01
  1.00800000E+00  1.00800000E+00  1.60000000E+01  1.00800000E+00  1.00800000E+00
  1.60000000E+01  1.00800000E+00  1.00800000E+00  1.60000000E+01  1.00800000E+00
  1.00800000E+00  1.60000000E+01  1.00800000E+00  1.00800000E+00  1.60000000E+01
  1.00800000E+00  1.00800000E+00  1.60000000E+01  1.00800000E+00  1.00800000E+00
  1.60000000E+01  1.00800000E+00  1.00800000E+00  1.60000000E+01  1.00800000E+00
  1.00800000E+00  1.60000000E+01  1.00800000E+00  1.00800000E+00  1.60000000E+01
  1.00800000E+00  1.00800000E+00  1.60000000E+01  1.00800000E+00  1.00800000E+00
  1.60000000E+01  1.00800000E+00  1.00800000E+00  1.60000000E+01  1.00800000E+00
  1.00800000E+00  1.60000000E+01  1.00800000E+00  1.00800000E+00  1.60000000E+01
  1.00800000E+00  1.00800000E+00  1.60000000E+01  1.00800000E+00  1.00800000E+00
  1.60000000E+01  1.00800000E+00  1.00800000E+00  1.60000000E+01  1.00800000E+00
  1.00800000E+00  1.60000000E+01  1.00800000E+00  1.00800000E+00  1.60000000E+01
  1.00800000E+00  1.00800000E+00  1.60000000E+01  1.00800000E+00  1.00800000E+00
  1.60000000E+01  1.00800000E+00  1.00800000E+00  1.60000000E+01  1.00800000E+00
  1.00800000E+00  1.60000000E+01  1.00800000E+00  1.00800000E+00  1.60000000E+01
  1.00800000E+00  1.00800000E+00  1.60000000E+01  1.00800000E+00  1.00800000E+00
  1.60000000E+01  1.00800000E+00  1.00800000E+00  1.60000000E+01  1.00800000E+00
  1.00800000E+00  1.60000000E+01  1.00800000E+00  1.00800000E+00  1.60000000E+01
  1.00800000E+00  1.00800000E+00  1.60000000E+01  1.00800000E+00  1.00800000E+00
  1.60000000E+01  1.00800000E+00  1.00800000E+00  1.60000000E+01  1.00800000E+00
  1.00800000E+00  1.60000000E+01  1.00800000E+00  1.00800000E+00  1.60000000E+01
  1.00800000E+00  1.00800000E+00  1.60000000E+01  1.00800000E+00  1.00800000E+00
  1.60000000E+01  1.00800000E+00  1.00800000E+00  1.60000000E+01  1.00800000E+00
  1.00800000E+00  1.60000000E+01  1.00800000E+00  1.00800000E+00  1.60000000E+01
  1.00800000E+00  1.00800000E+00  1.60000000E+01  1.00800000E+00  1.00800000E+00
  1.60000000E+01  1.00800000E+00  1.00800000E+00  1.60000000E+01  1.00800000E+00
  1.00800000E+00  1.60000000E+01  1.00800000E+00  1.00800000E+00  1.60000000E+01
  1.00800000E+00  1.00800000E+00  1.60000000E+01  1.00800000E+00  1.00800000E+00
  1.60000000E+01  1.00800000E+00  1.00800000E+00  1.60000000E+01  1.00800000E+00
  1.00800000E+00  1.60000000E+01  1.00800000E+00  1.00800000E+00  1.60000000E+01
  1.00800000E+00  1.00800000E+00  1.60000000E+01  1.00800000E+00  1.00800000E+00
  1.60000000E+01  1.00800000E+00  1.00800000E+00  1.60000000E+01  1.00800000E+00
  1.00800000E+00  1.60000000E+01  1.00800000E+00  1.00800000E+00  1.60000000E+01
  1.00800000E+00  1.00800000E+00  1.60000000E+01  1.00800000E+00  1.00800000E+00
  1.60000000E+01  1.00800000E+00  1.00800000E+00  1.60000000E+01  1.00800000E+00
  1.00800000E+00  1.60000000E+01  1.00800000E+00  1.00800000E+00  1.60000000E+01
  1.00800000E+00  1.00800000E+00  1.60000000E+01  1.00800000E+00  1.00800000E+00
  1.60000000E+01  1.00800000E+00  1.00800000E+00  1.60000000E+01  1.00800000E+00
  1.00800000E+00  1.60000000E+01  1.00800000E+00  1.00800000E+00  1.60000000E+01
  1.00800000E+00  1.00800000E+00  1.60000000E+01  1.00800000E+00  1.00800000E+00
  1.60000000E+01  1.00800000E+00  1.00800000E+00  1.60000000E+01  1.00800000E+00
  1.00800000E+00  1.60000000E+01  1.00800000E+00  1.00800000E+00  1.60000000E+01
  1.00800000E+00  1.00800000E+00  1.60000000E+01  1.00800000E+00  1.00800000E+00
  1.60000000E+01  1.00800000E+00  1.00800000E+00  1.60000000E+01  1.00800000E+00
  1.00800000E+00  1.60000000E+01  1.00800000E+00  1.00800000E+00  1.60000000E+01
  1.00800000E+00  1.00800000E+00  1.60000000E+01  1.00800000E+00  1.00800000E+00
  1.60000000E+01  1.00800000E+00  1.00800000E+00  1.60000000E+01  1.00800000E+00
  1.00800000E+00  1.60000000E+01  1.00800000E+00  1.00800000E+00  1.60000000E+01
  1.00800000E+00  1.00800000E+00  1.60000000E+01  1.00800000E+00  1.00800000E+00
  1.60000000E+01  1.00800000E+00  1.00800000E+00  1.60000000E+01  1.00800000E+00
  1.00800000E+00  1.60000000E+01  1.00800000E+00  1.00800000E+00  1.60000000E+01
  1.00800000E+00  1.00800000E+00  1.60000000E+01  1.00800000E+00  1.00800000E+00
  1.60000000E+01  1.00800000E+00  1.00800000E+00  1.60000000E+01  1.00800000E+00
  1.00800000E+00  1.60000000E+01  1.00800000E+00  1.00800000E+00  1.60000000E+01
  1.00800000E+00  1.00800000E+00  1.60000000E+01  1.00800000E+00  1.00800000E+00
  1.60000000E+01  1.00800000E+00  1.00800000E+00  1.60000000E+01  1.00800000E+00
  1.00800000E+00  1.60000000E+01  1.00800000E+00  1.00800000E+00  1.60000000E+01
  1.00800000E+00  1.00800000E+00  1.60000000E+01  1.00800000E+00  1.00800000E+00
  1.60000000E+01  1.00800000E+00  1.00800000E+00  1.60000000E+01  1.00800000E+00
  1.00800000E+00  1.60000000E+01  1.00800000E+00  1.00800000E+00  1.60000000E+01
  1.00800000E+00  1.00800000E+00  1.60000000E+01  1.00800000E+00  1.00800000E+00
  1.60000000E+01  1.00800000E+00  1.00800000E+00  1.60000000E+01  1.00800000E+00
  1.00800000E+00  1.60000000E+01  1.00800000E+00  1.00800000E+00  1.60000000E+01
  1.00800000E+00  1.00800000E+00  1.60000000E+01  1.00800000E+00  1.00800000E+00
  1.60000000E+01  1.00800000E+00  1.00800000E+00  1.60000000E+01  1.00800000E+00
  1.00800000E+00  1.60000000E+01  1.00800000E+00  1.00800000E+00  1.60000000E+01
  1.00800000E+00  1.00800000E+00  1.60000000E+01  1.00800000E+00  1.00800000E+00
  1.60000000E+01  1.00800000E+00  1.00800000E+00  1.60000000E+01  1.00800000E+00
  1.00800000E+00  1.60000000E+01  1.00800000E+00  1.00800000E+00  1.60000000E+01
  1.00800000E+00  1.00800000E+00  1.60000000E+01  1.00800000E+00  1.00800000E+00
  1.60000000E+01  1.00800000E+00  1.00800000E+00  1.60000000E+01  1.00800000E+00
  1.00800000E+00  1.60000000E+01  1.00800000E+00  1.00800000E+00  1.60000000E+01
  1.00800000E+00  1.00800000E+00  1.60000000E+01  1.00800000E+00  1.00800000E+00
  1.60000000E+01  1.00800000E+00  1.00800000E+00  1.60000000E+01  1.00800000E+00
  1.00800000E+00  1.60000000E+01  1.00800000E+00  1.00800000E+00  1.60000000E+01
  1.00800000E+00  1.00800000E+00  1.60000000E+01  1.00800000E+00  1.00800000E+00
  1.60000000E+01  1.00800000E+00  1.00800000E+00  1.60000000E+01  1.00800000E+00
  1.00800000E+00  1.60000000E+01  1.00800000E+00  1.00800000E+00  1.60000000E+01
  1.00800000E+00  1.00800000E+00  1.60000000E+01  1.00800000E+00  1.00800000E+00
  1.60000000E+01  1.00800000E+00  1.00800000E+00  1.60000000E+01  1.00800000E+00
  1.00800000E+00  1.60000000E+01  1.00800000E+00  1.00800000E+00  1.60000000E+01
  1.00800000E+00  1.00800000E+00  1.60000000E+01  1.00800000E+00  1.00800000E+00
  1.60000000E+01  1.00800000E+00  1.00800000E+00  1.60000000E+01  1.00800000E+00
  1.00800000E+00  1.60000000E+01  1.00800000E+00  1.00800000E+00  1.60000000E+01
  1.00800000E+00  1.00800000E+00  1.60000000E+01  1.00800000E+00  1.00800000E+00
  1.60000000E+01  1.00800000E+00  1.00800000E+00  1.60000000E+01  1.00800000E+00
  1.00800000E+00  1.60000000E+01  1.00800000E+00  1.00800000E+00  1.60000000E+01
  1.00800000E+00  1.00800000E+00  1.60000000E+01  1.00800000E+00  1.00800000E+00
  1.60000000E+01  1.00800000E+00  1.00800000E+00  1.60000000E+01  1.00800000E+00
  1.00800000E+00  1.60000000E+01  1.00800000E+00  1.00800000E+00  1.60000000E+01
  1.00800000E+00  1.00800000E+00  1.60000000E+01  1.00800000E+00  1.00800000E+00
  1.60000000E+01  1.00800000E+00  1.00800000E+00  1.60000000E+01  1.00800000E+00
  1.00800000E+00  1.60000000E+01  1.00800000E+00  1.00800000E+00  1.60000000E+01
  1.00800000E+00  1.00800000E+00  1.60000000E+01  1.00800000E+00  1.00800000E+00
  1.60000000E+01  1.00800000E+00  1.00800000E+00  1.60000000E+01  1.00800000E+00
  1.00800000E+00  1.60000000E+01  1.00800000E+00  1.00800000E+00  1.60000000E+01
  1.00800000E+00  1.00800000E+00  1.60000000E+01  1.00800000E+00  1.00800000E+00
  1.60000000E+01  1.00800000E+00  1.00800000E+00  1.60000000E+01  1.00800000E+00
  1.00800000E+00  1.60000000E+01  1.00800000E+00  1.00800000E+00  1.60000000E+01
  1.00800000E+00  1.00800000E+00  1.60000000E+01  1.00800000E+00  1.00800000E+00
  1.60000000E+01  1.00800000E+00  1.00800000E+00  1.60000000E+01  1.00800000E+00
  1.00800000E+00  1.60000000E+01  1.00800000E+00  1.00800000E+00  1.60000000E+01
  1.00800000E+00  1.00800000E+00  1.60000000E+01  1.00800000E+00  1.00800000E+00
  1.60000000E+01  1.00800000E+00  1.00800000E+00  1.60000000E+01  1.00800000E+00
  1.00800000E+00  1.60000000E+01  1.00800000E+00  1.00800000E+00  1.60000000E+01
  1.00800000E+00  1.00800000E+00  1.60000000E+01  1.00800000E+00  1.00800000E+00
  1.60000000E+01  1.00800000E+00  1.00800000E+00  1.60000000E+01  1.00800000E+00
  1.00800000E+00  1.60000000E+01  1.00800000E+00  1.00800000E+00  1.60000000E+01
  1.00800000E+00  1.00800000E+00  1.60000000E+01  1.00800000E+00  1.00800000E+00
  1.60000000E+01  1.00800000E+00  1.00800000E+00  1.60000000E+01  1.00800000E+00
  1.00800000E+00  1.60000000E+01  1.00800000E+00  1.00800000E+00  1.60000000E+01
  1.00800000E+00  1.00800000E+00  1.60000000E+01  1.00800000E+00  1.00800000E+00
  1.60000000E+01  1.00800000E+00  1.00800000E+00  1.60000000E+01  1.00800000E+00
  1.00800000E+00  1.60000000E+01  1.00800000E+00  1.00800000E+00  1.60000000E+01
  1.00800000E+00  1.00800000E+00  1.60000000E+01  1.00800000E+00  1.00800000E+00
  1.60000000E+01  1.00800000E+00  1.00800000E+00  1.60000000E+01  1.00800000E+00
  1.00800000E+00  1.60000000E+01  1.00800000E+00  1.00800000E+00  1.60000000E+01
  1.00800000E+00  1.00800000E+00  1.60000000E+01  1.00800000E+00  1.00800000E+00
  1.60000000E+01  1.00800000E+00  1.00800000E+00  1.60000000E+01  1.00800000E+00
  1.00800000E+00  1.60000000E+01  1.00800000E+00  1.00800000E+00  1.60000000E+01
  1.00800000E+00  1.00800000E+00  1.60000000E+01  1.00800000E+00  1.00800000E+00
  1.60000000E+01  1.00800000E+00  1.00800000E+00  1.60000000E+01  1.00800000E+00
  1.00800000E+00  1.60000000E+01  1.00800000E+00  1.00800000E+00  1.60000000E+01
  1.00800000E+00  1.00800000E+00  1.60000000E+01  1.00800000E+00  1.00800000E+00
  1.60000000E+01  1.00800000E+00  1.00800000E+00  1.60000000E+01  1.00800000E+00
  1.00800000E+00  1.60000000E+01  1.00800000E+00  1.00800000E+00  1.60000000E+01
  1.00800000E+00  1.00800000E+00  1.60000000E+01  1.00800000E+00  1.00800000E+00
  1.60000000E+01  1.00800000E+00  1.00800000E+00  1.60000000E+01  1.00800000E+00
  1.00800000E+00  1.60000000E+01  1.00800000E+00  1.00800000E+00  1.60000000E+01
  1.00800000E+00  1.00800000E+00  1.60000000E+01  1.00800000E+00  1.00800000E+00
  1.60000000E+01  1.00800000E+00  1.00800000E+00  1.60000000E+01  1.00800000E+00
  1.00800000E+00  1.60000000E+01  1.00800000E+00  1.00800000E+00  1.60000000E+01
  1.00800000E+00  1.00800000E+00  1.60000000E+01  1.00800000E+00  1.00800000E+00
  1.60000000E+01  1.00800000E+00  1.00800000E+00  1.60000000E+01  1.00800000E+00
  1.00800000E+00  1.60000000E+01  1.00800000E+00  1.00800000E+00  1.60000000E+01
  1.00800000E+00  1.00800000E+00  1.60000000E+01  1.00800000E+00  1.00800000E+00
  1.60000000E+01  1.00800000E+00  1.00800000E+00  1.60000000E+01  1.00800000E+00
  1.00800000E+00  1.60000000E+01  1.00800000E+00  1.00800000E+00  1.60000000E+01
  1.00800000E+00  1.00800000E+00  1.60000000E+01  1.00800000E+00  1.00800000E+00
  1.60000000E+01  1.00800000E+00  1.00800000E+00  1.60000000E+01  1.00800000E+00
  1.00800000E+00  1.60000000E+01  1.00800000E+00  1.00800000E+00  1.60000000E+01
  1.00800000E+00  1.00800000E+00  1.60000000E+01  1.00800000E+00  1.00800000E+00
  1.60000000E+01  1.00800000E+00  1.00800000E+00  1.60000000E+01  1.00800000E+00
  1.00800000E+00  1.60000000E+01  1.00800000E+00  1.00800000E+00  1.60000000E+01
  1.00800000E+00  1.00800000E+00  1.60000000E+01  1.00800000E+00  1.00800000E+00
  1.60000000E+01  1.00800000E+00  1.00800000E+00  1.60000000E+01  1.00800000E+00
  1.00800000E+00  1.60000000E+01  1.00800000E+00  1.00800000E+00  1.60000000E+01
  1.00800000E+00  1.00800000E+00  1.60000000E+01  1.00800000E+00  1.00800000E+00
  1.60000000E+01  1.00800000E+00  1.00800000E+00  1.60000000E+01  1.00800000E+00
  1.00800000E+00  1.60000000E+01  1.00800000E+00  1.00800000E+00  1.60000000E+01
  1.00800000E+00  1.00800000E+00  1.60000000E+01  1.00800000E+00  1.00800000E+00
  1.60000000E+01  1.00800000E+00  1.00800000E+00  1.60000000E+01  1.00800000E+00
  1.00800000E+00  1.60000000E+01  1.00800000E+00  1.00800000E+00  1.60000000E+01
  1.00800000E+00  1.00800000E+00  1.60000000E+01  1.00800000E+00  1.00800000E+00
  1.60000000E+01  1.00800000E+00  1.00800000E+00  1.60000000E+01  1.00800000E+00
  1.00800000E+00  1.60000000E+01  1.00800000E+00  1.00800000E+00  1.60000000E+01
  1.00800000E+00  1.00800000E+00  1.60000000E+01  1.00800000E+00  1.00800000E+00
  1.60000000E+01  1.00800000E+00  1.00800000E+00  1.60000000E+01  1.00800000E+00
  1.00800000E+00  1.60000000E+01  1.00800000E+00  1.00800000E+00  1.60000000E+01
  1.00800000E+00  1.00800000E+00  1.60000000E+01  1.00800000E+00  1.00800000E+00
  1.60000000E+01  1.00800000E+00  1.00800000E+00  1.60000000E+01  1.00800000E+00
  1.00800000E+00  1.60000000E+01  1.00800000E+00  1.00800000E+00  1.60000000E+01
  1.00800000E+00  1.00800000E+00  1.60000000E+01  1.00800000E+00  1.00800000E+00
  1.60000000E+01  1.00800000E+00  1.00800000E+00  1.60000000E+01  1.00800000E+00
  1.00800000E+00  1.60000000E+01  1.00800000E+00  1.00800000E+00  1.60000000E+01
  1.00800000E+00  1.00800000E+00  1.60000000E+01  1.00800000E+00  1.00800000E+00
  1.60000000E+01  1.00800000E+00  1.00800000E+00  1.60000000E+01  1.00800000E+00
  1.00800000E+00  1.60000000E+01  1.00800000E+00  1.00800000E+00  1.60000000E+01
  1.00800000E+00  1.00800000E+00  1.60000000E+01  1.00800000E+00  1.00800000E+00
  1.60000000E+01  1.00800000E+00  1.00800000E+00  1.60000000E+01  1.00800000E+00
  1.00800000E+00  1.60000000E+01  1.00800000E+00  1.00800000E+00  1.60000000E+01
  1.00800000E+00  1.00800000E+00  1.60000000E+01  1.00800000E+00  1.00800000E+00
  1.60000000E+01  1.00800000E+00  1.00800000E+00  1.60000000E+01  1.00800000E+00
  1.00800000E+00  1.60000000E+01  1.00800000E+00  1.00800000E+00  1.60000000E+01
  1.00800000E+00  1.00800000E+00  1.60000000E+01  1.00800000E+00  1.00800000E+00
  1.60000000E+01  1.00800000E+00  1.00800000E+00  1.60000000E+01  1.00800000E+00
  1.00800000E+00  1.60000000E+01  1.00800000E+00  1.00800000E+00  1.60000000E+01
  1.00800000E+00  1.00800000E+00  1.60000000E+01  1.00800000E+00  1.00800000E+00
  1.60000000E+01  1.00800000E+00  1.00800000E+00  1.60000000E+01  1.00800000E+00
  1.00800000E+00  1.60000000E+01  1.00800000E+00  1.00800000E+00  1.60000000E+01
  1.00800000E+00  1.00800000E+00  1.60000000E+01  1.00800000E+00  1.00800000E+00
  1.60000000E+01  1.00800000E+00  1.00800000E+00  1.60000000E+01  1.00800000E+00
  1.00800000E+00  1.60000000E+01  1.00800000E+00  1.00800000E+00  1.60000000E+01
  1.00800000E+00  1.00800000E+00  1.60000000E+01  1.00800000E+00  1.00800000E+00
  1.60000000E+01  1.00800000E+00  1.00800000E+00  1.60000000E+01  1.00800000E+00
  1.00800000E+00  1.60000000E+01  1.00800000E+00  1.00800000E+00  1.60000000E+01
  1.00800000E+00  1.00800000E+00  1.60000000E+01  1.00800000E+00  1.00800000E+00
  1.60000000E+01  1.00800000E+00  1.00800000E+00  1.60000000E+01  1.00800000E+00
  1.00800000E+00  1.60000000E+01  1.00800000E+00  1.00800000E+00  1.60000000E+01
  1.00800000E+00  1.00800000E+00  1.60000000E+01  1.00800000E+00  1.00800000E+00
  1.60000000E+01  1.00800000E+00  1.00800000E+00  1.60000000E+01  1.00800000E+00
  1.00800000E+00  1.60000000E+01  1.00800000E+00  1.00800000E+00  1.60000000E+01
  1.00800000E+00  1.00800000E+00  1.60000000E+01  1.00800000E+00  1.00800000E+00
  1.60000000E+01  1.00800000E+00  1.00800000E+00  1.60000000E+01  1.00800000E+00
  1.00800000E+00  1.60000000E+01  1.00800000E+00  1.00800000E+00  1.60000000E+01
  1.00800000E+00  1.00800000E+00  1.60000000E+01  1.00800000E+00  1.00800000E+00
  1.60000000E+01  1.00800000E+00  1.00800000E+00  1.60000000E+01  1.00800000E+00
  1.00800000E+00  1.60000000E+01  1.00800000E+00  1.00800000E+00  1.60000000E+01
  1.00800000E+00  1.00800000E+00  1.60000000E+01  1.00800000E+00  1.00800000E+00
  1.60000000E+01  1.00800000E+00  1.00800000E+00  1.60000000E+01  1.00800000E+00
  1.00800000E+00  1.60000000E+01  1.00800000E+00  1.00800000E+00  1.60000000E+01
  1.00800000E+00  1.00800000E+00  1.60000000E+01  1.00800000E+00  1.00800000E+00
  1.60000000E+01  1.00800000E+00  1.00800000E+00  1.60000000E+01  1.00800000E+00
  1.00800000E+00  1.60000000E+01  1.00800000E+00  1.00800000E+00  1.60000000E+01
  1.00800000E+00  1.00800000E+00  1.60000000E+01  1.00800000E+00  1.00800000E+00
  1.60000000E+01  1.00800000E+00  1.00800000E+00  1.60000000E+01  1.00800000E+00
  1.00800000E+00  1.60000000E+01  1.00800000E+00  1.00800000E+00  1.60000000E+01
  1.00800000E+00  1.00800000E+00  1.60000000E+01  1.00800000E+00  1.00800000E+00
  1.60000000E+01  1.00800000E+00  1.00800000E+00  1.60000000E+01  1.00800000E+00
  1.00800000E+00  1.60000000E+01  1.00800000E+00  1.00800000E+00  1.60000000E+01
  1.00800000E+00  1.00800000E+00  1.60000000E+01  1.00800000E+00  1.00800000E+00
  1.60000000E+01  1.00800000E+00  1.00800000E+00  1.60000000E+01  1.00800000E+00
  1.00800000E+00  1.60000000E+01  1.00800000E+00  1.00800000E+00  1.60000000E+01
  1.00800000E+00  1.00800000E+00  1.60000000E+01  1.00800000E+00  1.00800000E+00
  1.60000000E+01  1.00800000E+00  1.00800000E+00  1.60000000E+01  1.00800000E+00
  1.00800000E+00  1.60000000E+01  1.00800000E+00  1.00800000E+00  1.60000000E+01
  1.00800000E+00  1.00800000E+00  1.60000000E+01  1.00800000E+00  1.00800000E+00
  1.60000000E+01  1.00800000E+00  1.00800000E+00  1.60000000E+01  1.00800000E+00
  1.00800000E+00  1.60000000E+01  1.00800000E+00  1.00800000E+00  1.60000000E+01
  1.00800000E+00  1.00800000E+00  1.60000000E+01  1.00800000E+00  1.00800000E+00
  1.60000000E+01  1.00800000E+00  1.00800000E+00  1.60000000E+01  1.00800000E+00
  1.00800000E+00  1.60000000E+01  1.00800000E+00  1.00800000E+00  1.60000000E+01
  1.00800000E+00  1.00800000E+00  1.60000000E+01  1.00800000E+00  1.00800000E+00
  1.60000000E+01  1.00800000E+00  1.00800000E+00  1.60000000E+01  1.00800000E+00
  1.00800000E+00  1.60000000E+01  1.00800000E+00  1.00800000E+00  1.60000000E+01
  1.00800000E+00  1.00800000E+00  1.60000000E+01  1.00800000E+00  1.00800000E+00
  1.60000000E+01  1.00800000E+00  1.00800000E+00  1.60000000E+01  1.00800000E+00
  1.00800000E+00  1.60000000E+01  1.00800000E+00  1.00800000E+00  1.60000000E+01
  1.00800000E+00  1.00800000E+00  1.60000000E+01  1.00800000E+00  1.00800000E+00
  1.60000000E+01  1.00800000E+00  1.00800000E+00  1.60000000E+01  1.00800000E+00
  1.00800000E+00  1.60000000E+01  1.00800000E+00  1.00800000E+00  1.60000000E+01
  1.00800000E+00  1.00800000E+00  1.60000000E+01  1.00800000E+00  1.00800000E+00
  1.60000000E+01  1.00800000E+00  1.00800000E+00  1.60000000E+01  1.00800000E+00
  1.00800000E+00  1.60000000E+01  1.00800000E+00  1.00800000E+00  1.60000000E+01
  1.00800000E+00  1.00800000E+00  1.60000000E+01  1.00800000E+00  1.00800000E+00
  1.60000000E+01  1.00800000E+00  1.00800000E+00  1.60000000E+01  1.00800000E+00
  1.00800000E+00  1.60000000E+01  1.00800000E+00  1.00800000E+00  1.60000000E+01
  1.00800000E+00  1.00800000E+00  1.60000000E+01  1.00800000E+00  1.00800000E+00
  1.60000000E+01  1.00800000E+00  1.00800000E+00  1.60000000E+01  1.00800000E+00
  1.00800000E+00  1.60000000E+01  1.00800000E+00  1.00800000E+00  1.60000000E+01
  1.00800000E+00  1.00800000E+00  1.60000000E+01  1.00800000E+00  1.00800000E+00
  1.60000000E+01  1.00800000E+00  1.00800000E+00  1.60000000E+01  1.00800000E+00
  1.00800000E+00  1.60000000E+01  1.00800000E+00  1.00800000E+00  1.60000000E+01
  1.00800000E+00  1.00800000E+00  1.60000000E+01  1.00800000E+00  1.00800000E+00
  1.60000000E+01  1.00800000E+00  1.00800000E+00  1.60000000E+01  1.00800000E+00
  1.00800000E+00  1.60000000E+01  1.00800000E+00  1.00800000E+00  1.60000000E+01
  1.00800000E+00  1.00800000E+00  1.60000000E+01  1.00800000E+00  1.00800000E+00
  1.60000000E+01  1.00800000E+00  1.00800000E+00  1.60000000E+01  1.00800000E+00
  1.00800000E+00  1.60000000E+01  1.00800000E+00  1.00800000E+00  1.60000000E+01
  1.00800000E+00  1.00800000E+00  1.60000000E+01  1.00800000E+00  1.00800000E+00
  1.60000000E+01  1.00800000E+00  1.00800000E+00  1.60000000E+01  1.00800000E+00
  1.00800000E+00  1.60000000E+01  1.00800000E+00  1.00800000E+00  1.60000000E+01
  1.00800000E+00  1.00800000E+00  1.60000000E+01  1.00800000E+00  1.00800000E+00
  1.60000000E+01  1.00800000E+00  1.00800000E+00  1.60000000E+01  1.00800000E+00
  1.00800000E+00  1.60000000E+01  1.00800000E+00  1.00800000E+00  1.60000000E+01
  1.00800000E+00  1.00800000E+00  1.60000000E+01  1.00800000E+00  1.00800000E+00
  1.60000000E+01  1.00800000E+00  1.00800000E+00  1.60000000E+01  1.00800000E+00
  1.00800000E+00  1.60000000E+01  1.00800000E+00  1.00800000E+00  1.60000000E+01
  1.00800000E+00  1.00800000E+00  1.60000000E+01  1.00800000E+00  1.00800000E+00
  1.60000000E+01  1.00800000E+00  1.00800000E+00  1.60000000E+01  1.00800000E+00
  1.00800000E+00  1.60000000E+01  1.00800000E+00  1.00800000E+00  1.60000000E+01
  1.00800000E+00  1.00800000E+00  1.60000000E+01  1.00800000E+00  1.00800000E+00
  1.60000000E+01  1.00800000E+00  1.00800000E+00  1.60000000E+01  1.00800000E+00
  1.00800000E+00  1.60000000E+01  1.00800000E+00  1.00800000E+00  1.60000000E+01
  1.00800000E+00  1.00800000E+00  1.60000000E+01  1.00800000E+00  1.00800000E+00
  1.60000000E+01  1.00800000E+00  1.00800000E+00  1.60000000E+01  1.00800000E+00
  1.00800000E+00  1.60000000E+01  1.00800000E+00  1.00800000E+00  1.60000000E+01
  1.00800000E+00  1.00800000E+00  1.60000000E+01  1.00800000E+00  1.00800000E+00
  1.60000000E+01  1.00800000E+00  1.00800000E+00  1.60000000E+01  1.00800000E+00
  1.00800000E+00  1.60000000E+01  1.00800000E+00  1.00800000E+00  1.60000000E+01
  1.00800000E+00  1.00800000E+00  1.60000000E+01  1.00800000E+00  1.00800000E+00
  1.60000000E+01  1.00800000E+00  1.00800000E+00  1.60000000E+01  1.00800000E+00
  1.00800000E+00  1.60000000E+01  1.00800000E+00  1.00800000E+00  1.60000000E+01
  1.00800000E+00  1.00800000E+00  1.60000000E+01  1.00800000E+00  1.00800000E+00
  1.60000000E+01  1.00800000E+00  1.00800000E+00  1.60000000E+01  1.00800000E+00
  1.00800000E+00  1.60000000E+01  1.00800000E+00  1.00800000E+00  1.60000000E+01
  1.00800000E+00  1.00800000E+00  1.60000000E+01  1.00800000E+00  1.00800000E+00
  1.60000000E+01  1.00800000E+00  1.00800000E+00  1.60000000E+01  1.00800000E+00
  1.00800000E+00  1.60000000E+01  1.00800000E+00  1.00800000E+00  1.60000000E+01
  1.00800000E+00  1.00800000E+00  1.60000000E+01  1.00800000E+00  1.00800000E+00
  1.60000000E+01  1.00800000E+00  1.00800000E+00  1.60000000E+01  1.00800000E+00
  1.00800000E+00  1.60000000E+01  1.00800000E+00  1.00800000E+00  1.60000000E+01
  1.00800000E+00  1.00800000E+00  1.60000000E+01  1.00800000E+00  1.00800000E+00
  1.60000000E+01  1.00800000E+00  1.00800000E+00  1.60000000E+01  1.00800000E+00
  1.00800000E+00  1.60000000E+01  1.00800000E+00  1.00800000E+00  1.60000000E+01
  1.00800000E+00  1.00800000E+00  1.60000000E+01  1.00800000E+00  1.00800000E+00
  1.60000000E+01  1.00800000E+00  1.00800000E+00  1.60000000E+01  1.00800000E+00
  1.00800000E+00  1.60000000E+01  1.00800000E+00  1.00800000E+00  1.60000000E+01
  1.00800000E+00  1.00800000E+00  1.60000000E+01  1.00800000E+00  1.00800000E+00
  1.60000000E+01  1.00800000E+00  1.00800000E+00  1.60000000E+01  1.00800000E+00
  1.00800000E+00  1.60000000E+01  1.00800000E+00  1.00800000E+00  1.60000000E+01
  1.00800000E+00  1.00800000E+00  1.60000000E+01  1.00800000E+00  1.00800000E+00
  1.60000000E+01  1.00800000E+00  1.00800000E+00  1.60000000E+01  1.00800000E+00
  1.00800000E+00  1.60000000E+01  1.00800000E+00  1.00800000E+00  1.60000000E+01
  1.00800000E+00  1.00800000E+00  1.60000000E+01  1.00800000E+00  1.00800000E+00
  1.60000000E+01  1.00800000E+00  1.00800000E+00  1.60000000E+01  1.00800000E+00
  1.00800000E+00  1.60000000E+01  1.00800000E+00  1.00800000E+00  1.60000000E+01
  1.00800000E+00  1.00800000E+00  1.60000000E+01  1.00800000E+00  1.00800000E+00
  1.60000000E+01  1.00800000E+00  1.00800000E+00  1.60000000E+01  1.00800000E+00
  1.00800000E+00  1.60000000E+01  1.00800000E+00  1.00800000E+00  1.60000000E+01
  1.00800000E+00  1.00800000E+00  1.60000000E+01  1.00800000E+00  1.00800000E+00
  1.60000000E+01  1.00800000E+00  1.00800000E+00  1.60000000E+01  1.00800000E+00
  1.00800000E+00  1.60000000E+01  1.00800000E+00  1.00800000E+00  1.60000000E+01
  1.00800000E+00  1.00800000E+00  1.60000000E+01  1.00800000E+00  1.00800000E+00
  1.60000000E+01  1.00800000E+00  1.00800000E+00  1.60000000E+01  1.00800000E+00
  1.00800000E+00  1.60000000E+01  1.00800000E+00  1.00800000E+00  1.60000000E+01
  1.00800000E+00  1.00800000E+00  1.60000000E+01  1.00800000E+00  1.00800000E+00
  1.60000000E+01  1.00800000E+00  1.00800000E+00  1.60000000E+01  1.00800000E+00
  1.00800000E+00  1.60000000E+01  1.00800000E+00  1.00800000E+00  1.60000000E+01
  1.00800000E+00  1.00800000E+00  1.60000000E+01  1.00800000E+00  1.00800000E+00
  1.60000000E+01  1.00800000E+00  1.00800000E+00  1.60000000E+01  1.00800000E+00
  1.00800000E+00  1.60000000E+01  1.00800000E+00  1.00800000E+00  1.60000000E+01
  1.00800000E+00  1.00800000E+00  1.60000000E+01  1.00800000E+00  1.00800000E+00
  1.60000000E+01  1.00800000E+00  1.00800000E+00  1.60000000E+01  1.00800000E+00
  1.00800000E+00  1.60000000E+01  1.00800000E+00  1.00800000E+00  1.60000000E+01
  1.00800000E+00  1.00800000E+00  1.60000000E+01  1.00800000E+00  1.00800000E+00
  1.60000000E+01  1.00800000E+00  1.00800000E+00  1.60000000E+01  1.00800000E+00
  1.00800000E+00  1.60000000E+01  1.00800000E+00  1.00800000E+00  1.60000000E+01
  1.00800000E+00  1.00800000E+00  1.60000000E+01  1.00800000E+00  1.00800000E+00
  1.60000000E+01  1.00800000E+00  1.00800000E+00  1.60000000E+01  1.00800000E+00
  1.00800000E+00  1.60000000E+01  1.00800000E+00  1.00800000E+00  1.60000000E+01
  1.00800000E+00  1.00800000E+00  1.60000000E+01  1.00800000E+00  1.00800000E+00
  1.60000000E+01  1.00800000E+00  1.00800000E+00  1.60000000E+01  1.00800000E+00
  1.00800000E+00  1.60000000E+01  1.00800000E+00  1.00800000E+00  1.60000000E+01
  1.00800000E+00  1.00800000E+00  1.60000000E+01  1.00800000E+00  1.00800000E+00
  1.60000000E+01  1.00800000E+00  1.00800000E+00  1.60000000E+01  1.00800000E+00
  1.00800000E+00  1.60000000E+01  1.00800000E+00  1.00800000E+00  1.60000000E+01
  1.00800000E+00  1.00800000E+00  1.60000000E+01  1.00800000E+00  1.00800000E+00
  1.60000000E+01  1.00800000E+00  1.00800000E+00  1.60000000E+01  1.00800000E+00
  1.00800000E+00  1.60000000E+01  1.00800000E+00  1.00800000E+00  1.60000000E+01
  1.00800000E+00  1.00800000E+00  1.60000000E+01  1.00800000E+00  1.00800000E+00
  1.60000000E+01  1.00800000E+00  1.00800000E+00  1.60000000E+01  1.00800000E+00
  1.00800000E+00  1.60000000E+01  1.00800000E+00  1.00800000E+00  1.60000000E+01
  1.00800000E+00  1.00800000E+00  1.60000000E+01  1.00800000E+00  1.00800000E+00
  1.60000000E+01  1.00800000E+00  1.00800000E+00  1.60000000E+01  1.00800000E+00
  1.00800000E+00  1.60000000E+01  1.00800000E+00  1.00800000E+00  1.60000000E+01
  1.00800000E+00  1.00800000E+00  1.60000000E+01  1.00800000E+00  1.00800000E+00
  1.60000000E+01  1.00800000E+00  1.00800000E+00  1.60000000E+01  1.00800000E+00
  1.00800000E+00  1.60000000E+01  1.00800000E+00  1.00800000E+00  1.60000000E+01
  1.00800000E+00  1.00800000E+00  1.60000000E+01  1.00800000E+00  1.00800000E+00
  1.60000000E+01  1.00800000E+00  1.00800000E+00  1.60000000E+01  1.00800000E+00
  1.00800000E+00  1.60000000E+01  1.00800000E+00  1.00800000E+00  1.60000000E+01
  1.00800000E+00  1.00800000E+00  1.60000000E+01  1.00800000E+00  1.00800000E+00
  1.60000000E+01  1.00800000E+00  1.00800000E+00  1.60000000E+01  1.00800000E+00
  1.00800000E+00  1.60000000E+01  1.00800000E+00  1.00800000E+00  1.60000000E+01
  1.00800000E+00  1.00800000E+00  1.60000000E+01  1.00800000E+00  1.00800000E+00
  1.60000000E+01  1.00800000E+00  1.00800000E+00  1.60000000E+01  1.00800000E+00
  1.00800000E+00  1.60000000E+01  1.00800000E+00  1.00800000E+00  1.60000000E+01
  1.00800000E+00  1.00800000E+00  1.60000000E+01  1.00800000E+00  1.00800000E+00
  1.60000000E+01  1.00800000E+00  1.00800000E+00  1.60000000E+01  1.00800000E+00
  1.00800000E+00  1.60000000E+01  1.00800000E+00  1.00800000E+00  1.60000000E+01
  1.00800000E+00  1.00800000E+00  1.60000000E+01  1.00800000E+00  1.00800000E+00
  1.60000000E+01  1.00800000E+00  1.00800000E+00  1.60000000E+01  1.00800000E+00
  1.00800000E+00  1.60000000E+01  1.00800000E+00  1.00800000E+00  1.60000000E+01
  1.00800000E+00  1.00800000E+00  1.60000000E+01  1.00800000E+00  1.00800000E+00
  1.60000000E+01  1.00800000E+00  1.00800000E+00  1.60000000E+01  1.00800000E+00
  1.00800000E+00  1.60000000E+01  1.00800000E+00  1.00800000E+00  1.60000000E+01
  1.00800000E+00  1.00800000E+00  1.60000000E+01  1.00800000E+00  1.00800000E+00
  1.60000000E+01  1.00800000E+00  1.00800000E+00  1.60000000E+01  1.00800000E+00
  1.00800000E+00  1.60000000E+01  1.00800000E+00  1.00800000E+00  1.60000000E+01
  1.00800000E+00  1.00800000E+00  1.60000000E+01  1.00800000E+00  1.00800000E+00
  1.60000000E+01  1.00800000E+00  1.00800000E+00  1.60000000E+01  1.00800000E+00
  1.00800000E+00  1.60000000E+01  1.00800000E+00  1.00800000E+00  1.60000000E+01
  1.00800000E+00  1.00800000E+00  1.60000000E+01  1.00800000E+00  1.00800000E+00
  1.60000000E+01  1.00800000E+00  1.00800000E+00  1.60000000E+01  1.00800000E+00
  1.00800000E+00  1.60000000E+01  1.00800000E+00  1.00800000E+00  1.60000000E+01
  1.00800000E+00  1.00800000E+00  1.60000000E+01  1.00800000E+00  1.00800000E+00
  1.60000000E+01  1.00800000E+00  1.00800000E+00  1.60000000E+01  1.00800000E+00
  1.00800000E+00  1.60000000E+01  1.00800000E+00  1.00800000E+00  1.60000000E+01
  1.00800000E+00  1.00800000E+00  1.60000000E+01  1.00800000E+00  1.00800000E+00
  1.60000000E+01  1.00800000E+00  1.00800000E+00  1.60000000E+01  1.00800000E+00
  1.00800000E+00  1.60000000E+01  1.00800000E+00  1.00800000E+00  1.60000000E+01
  1.00800000E+00  1.00800000E+00  1.60000000E+01  1.00800000E+00  1.00800000E+00
  1.60000000E+01  1.00800000E+00  1.00800000E+00  1.60000000E+01  1.00800000E+00
  1.00800000E+00  1.60000000E+01  1.00800000E+00  1.00800000E+00  1.60000000E+01
  1.00800000E+00  1.00800000E+00  1.60000000E+01  1.00800000E+00  1.00800000E+00
  1.60000000E+01  1.00800000E+00  1.00800000E+00  1.60000000E+01  1.00800000E+00
  1.00800000E+00  1.60000000E+01  1.00800000E+00  1.00800000E+00  1.60000000E+01
  1.00800000E+00  1.00800000E+00  1.60000000E+01  1.00800000E+00  1.00800000E+00
  1.60000000E+01  1.00800000E+00  1.00800000E+00  1.60000000E+01  1.00800000E+00
  1.00800000E+00  1.60000000E+01  1.00800000E+00  1.00800000E+00  1.60000000E+01
  1.00800000E+00  1.00800000E+00  1.60000000E+01  1.00800000E+00  1.00800000E+00
  1.60000000E+01  1.00800000E+00  1.00800000E+00  1.60000000E+01  1.00800000E+00
  1.00800000E+00  1.60000000E+01  1.00800000E+00  1.00800000E+00  1.60000000E+01
  1.00800000E+00  1.00800000E+00  1.60000000E+01  1.00800000E+00  1.00800000E+00
  1.60000000E+01  1.00800000E+00  1.00800000E+00  1.60000000E+01  1.00800000E+00
  1.00800000E+00  1.60000000E+01  1.00800000E+00  1.00800000E+00  1.60000000E+01
  1.00800000E+00  1.00800000E+00  1.60000000E+01  1.00800000E+00  1.00800000E+00
  1.60000000E+01  1.00800000E+00  1.00800000E+00  1.60000000E+01  1.00800000E+00
  1.00800000E+00  1.60000000E+01  1.00800000E+00  1.00800000E+00  1.60000000E+01
  1.00800000E+00  1.00800000E+00  1.60000000E+01  1.00800000E+00  1.00800000E+00
  1.60000000E+01  1.00800000E+00  1.00800000E+00  1.60000000E+01  1.00800000E+00
  1.00800000E+00  1.60000000E+01  1.00800000E+00  1.00800000E+00  1.60000000E+01
  1.00800000E+00  1.00800000E+00  1.60000000E+01  1.00800000E+00  1.00800000E+00
  1.60000000E+01  1.00800000E+00  1.00800000E+00  1.60000000E+01  1.00800000E+00
  1.00800000E+00  1.60000000E+01  1.00800000E+00  1.00800000E+00  1.60000000E+01
  1.00800000E+00  1.00800000E+00  1.60000000E+01  1.00800000E+00  1.00800000E+00
  1.60000000E+01  1.00800000E+00  1.00800000E+00  1.60000000E+01  1.00800000E+00
  1.00800000E+00  1.60000000E+01  1.00800000E+00  1.00800000E+00  1.60000000E+01
  1.00800000E+00  1.00800000E+00  1.60000000E+01  1.00800000E+00  1.00800000E+00
  1.60000000E+01  1.00800000E+00  1.00800000E+00  1.60000000E+01  1.00800000E+00
  1.00800000E+00  1.60000000E+01  1.00800000E+00  1.00800000E+00  1.60000000E+01
  1.00800000E+00  1.00800000E+00  1.60000000E+01  1.00800000E+00  1.00800000E+00
  1.60000000E+01  1.00800000E+00  1.00800000E+00  1.60000000E+01  1.00800000E+00
  1.00800000E+00  1.60000000E+01  1.00800000E+00  1.00800000E+00  1.60000000E+01
  1.00800000E+00  1.00800000E+00  1.60000000E+01  1.00800000E+00  1.00800000E+00
  1.60000000E+01  1.00800000E+00  1.00800000E+00  1.60000000E+01  1.00800000E+00
  1.00800000E+00  1.60000000E+01  1.00800000E+00  1.00800000E+00  1.60000000E+01
  1.00800000E+00  1.00800000E+00  1.60000000E+01  1.00800000E+00  1.00800000E+00
  1.60000000E+01  1.00800000E+00  1.00800000E+00  1.60000000E+01  1.00800000E+00
  1.00800000E+00  1.60000000E+01  1.00800000E+00  1.00800000E+00  1.60000000E+01
  1.00800000E+00  1.00800000E+00  1.60000000E+01  1.00800000E+00  1.00800000E+00
  1.60000000E+01  1.00800000E+00  1.00800000E+00  1.60000000E+01  1.00800000E+00
  1.00800000E+00  1.60000000E+01  1.00800000E+00  1.00800000E+00  1.60000000E+01
  1.00800000E+00  1.00800000E+00  1.60000000E+01  1.00800000E+00  1.00800000E+00
  1.60000000E+01  1.00800000E+00  1.00800000E+00  1.60000000E+01  1.00800000E+00
  1.00800000E+00  1.60000000E+01  1.00800000E+00  1.00800000E+00  1.60000000E+01
  1.00800000E+00  1.00800000E+00  1.60000000E+01  1.00800000E+00  1.00800000E+00
  1.60000000E+01  1.00800000E+00  1.00800000E+00  1.60000000E+01  1.00800000E+00
  1.00800000E+00  1.60000000E+01  1.00800000E+00  1.00800000E+00  1.60000000E+01
  1.00800000E+00  1.00800000E+00  1.60000000E+01  1.00800000E+00  1.00800000E+00
  1.60000000E+01  1.00800000E+00  1.00800000E+00  1.60000000E+01  1.00800000E+00
  1.00800000E+00  1.60000000E+01  1.00800000E+00  1.00800000E+00  1.60000000E+01
  1.00800000E+00  1.00800000E+00  1.60000000E+01  1.00800000E+00  1.00800000E+00
  1.60000000E+01  1.00800000E+00  1.00800000E+00  1.60000000E+01  1.00800000E+00
  1.00800000E+00  1.60000000E+01  1.00800000E+00  1.00800000E+00  1.60000000E+01
  1.00800000E+00  1.00800000E+00  1.60000000E+01  1.00800000E+00  1.00800000E+00
  1.60000000E+01  1.00800000E+00  1.00800000E+00  1.60000000E+01  1.00800000E+00
  1.00800000E+00  1.60000000E+01  1.00800000E+00  1.00800000E+00  1.60000000E+01
  1.00800000E+00  1.00800000E+00  1.60000000E+01  1.00800000E+00  1.00800000E+00
  1.60000000E+01  1.00800000E+00  1.00800000E+00  1.60000000E+01  1.00800000E+00
  1.00800000E+00  1.60000000E+01  1.00800000E+00  1.00800000E+00  1.60000000E+01
  1.00800000E+00  1.00800000E+00  1.60000000E+01  1.00800000E+00  1.00800000E+00
  1.60000000E+01  1.00800000E+00  1.00800000E+00  1.60000000E+01  1.00800000E+00
  1.00800000E+00  1.60000000E+01  1.00800000E+00  1.00800000E+00  1.60000000E+01
  1.00800000E+00  1.00800000E+00  1.60000000E+01  1.00800000E+00  1.00800000E+00
  1.60000000E+01  1.00800000E+00  1.00800000E+00  1.60000000E+01  1.00800000E+00
  1.00800000E+00  1.60000000E+01  1.00800000E+00  1.00800000E+00  1.60000000E+01
  1.00800000E+00  1.00800000E+00  1.60000000E+01  1.00800000E+00  1.00800000E+00
  1.60000000E+01  1.00800000E+00  1.00800000E+00  1.60000000E+01  1.00800000E+00
  1.00800000E+00  1.60000000E+01  1.00800000E+00  1.00800000E+00  1.60000000E+01
  1.00800000E+00  1.00800000E+00  1.60000000E+01  1.00800000E+00  1.00800000E+00
  1.60000000E+01  1.00800000E+00  1.00800000E+00  1.60000000E+01  1.00800000E+00
  1.00800000E+00  1.60000000E+01  1.00800000E+00  1.00800000E+00  1.60000000E+01
  1.00800000E+00  1.00800000E+00  1.60000000E+01  1.00800000E+00  1.00800000E+00
  1.60000000E+01  1.00800000E+00  1.00800000E+00  1.60000000E+01  1.00800000E+00
  1.00800000E+00  1.60000000E+01  1.00800000E+00  1.00800000E+00  1.60000000E+01
  1.00800000E+00  1.00800000E+00  1.60000000E+01  1.00800000E+00  1.00800000E+00
  1.60000000E+01  1.00800000E+00  1.00800000E+00  1.60000000E+01  1.00800000E+00
  1.00800000E+00  1.60000000E+01  1.00800000E+00  1.00800000E+00  1.60000000E+01
  1.00800000E+00  1.00800000E+00  1.60000000E+01  1.00800000E+00  1.00800000E+00
  1.60000000E+01  1.00800000E+00  1.00800000E+00  1.60000000E+01  1.00800000E+00
  1.00800000E+00  1.60000000E+01  1.00800000E+00  1.00800000E+00  1.60000000E+01
  1.00800000E+00  1.00800000E+00  1.60000000E+01  1.00800000E+00  1.00800000E+00
  1.60000000E+01  1.00800000E+00  1.00800000E+00  1.60000000E+01  1.00800000E+00
  1.00800000E+00  1.60000000E+01  1.00800000E+00  1.00800000E+00  1.60000000E+01
  1.00800000E+00  1.00800000E+00  1.60000000E+01  1.00800000E+00  1.00800000E+00
  1.60000000E+01  1.00800000E+00  1.00800000E+00  1.60000000E+01  1.00800000E+00
  1.00800000E+00  1.60000000E+01  1.00800000E+00  1.00800000E+00  1.60000000E+01
  1.00800000E+00  1.00800000E+00  1.60000000E+01  1.00800000E+00  1.00800000E+00
  1.60000000E+01  1.00800000E+00  1.00800000E+00  1.60000000E+01  1.00800000E+00
  1.00800000E+00  1.60000000E+01  1.00800000E+00  1.00800000E+00  1.60000000E+01
  1.00800000E+00  1.00800000E+00  1.60000000E+01  1.00800000E+00  1.00800000E+00
  1.60000000E+01  1.00800000E+00  1.00800000E+00  1.60000000E+01  1.00800000E+00
  1.00800000E+00  1.60000000E+01  1.00800000E+00  1.00800000E+00  1.60000000E+01
  1.00800000E+00  1.00800000E+00  1.60000000E+01  1.00800000E+00  1.00800000E+00
  1.60000000E+01  1.00800000E+00  1.00800000E+00  1.60000000E+01  1.00800000E+00
  1.00800000E+00  1.60000000E+01  1.00800000E+00  1.00800000E+00  1.60000000E+01
  1.00800000E+00  1.00800000E+00  1.60000000E+01  1.00800000E+00  1.00800000E+00
  1.60000000E+01  1.00800000E+00  1.00800000E+00  1.60000000E+01  1.00800000E+00
  1.00800000E+00  1.60000000E+01  1.00800000E+00  1.00800000E+00  1.60000000E+01
  1.00800000E+00  1.00800000E+00  1.60000000E+01  1.00800000E+00  1.00800000E+00
  1.60000000E+01  1.00800000E+00  1.00800000E+00  1.60000000E+01  1.00800000E+00
  1.00800000E+00  1.60000000E+01  1.00800000E+00  1.00800000E+00  1.60000000E+01
  1.00800000E+00  1.00800000E+00  1.60000000E+01  1.00800000E+00  1.00800000E+00
  1.60000000E+01  1.00800000E+00  1.00800000E+00  1.60000000E+01  1.00800000E+00
  1.00800000E+00  1.60000000E+01  1.00800000E+00  1.00800000E+00  1.60000000E+01
  1.00800000E+00  1.00800000E+00  1.60000000E+01  1.00800000E+00  1.00800000E+00
  1.60000000E+01  1.00800000E+00  1.00800000E+00  1.60000000E+01  1.00800000E+00
  1.00800000E+00  1.60000000E+01  1.00800000E+00  1.00800000E+00  1.60000000E+01
  1.00800000E+00  1.00800000E+00  1.60000000E+01  1.00800000E+00  1.00800000E+00
  1.60000000E+01  1.00800000E+00  1.00800000E+00  1.60000000E+01  1.00800000E+00
  1.00800000E+00  1.60000000E+01  1.00800000E+00  1.00800000E+00  1.60000000E+01
  1.00800000E+00  1.00800000E+00  1.60000000E+01  1.00800000E+00  1.00800000E+00
  1.60000000E+01  1.00800000E+00  1.00800000E+00  1.60000000E+01  1.00800000E+00
  1.00800000E+00  1.60000000E+01  1.00800000E+00  1.00800000E+00  1.60000000E+01
  1.00800000E+00  1.00800000E+00  1.60000000E+01  1.00800000E+00  1.00800000E+00
  1.60000000E+01  1.00800000E+00  1.00800000E+00  1.60000000E+01  1.00800000E+00
  1.00800000E+00  1.60000000E+01  1.00800000E+00  1.00800000E+00  1.60000000E+01
  1.00800000E+00  1.00800000E+00  1.60000000E+01  1.00800000E+00  1.00800000E+00
  1.60000000E+01  1.00800000E+00  1.00800000E+00  1.60000000E+01  1.00800000E+00
  1.00800000E+00  1.60000000E+01  1.00800000E+00  1.00800000E+00  1.60000000E+01
  1.00800000E+00  1.00800000E+00  1.60000000E+01  1.00800000E+00  1.00800000E+00
  1.60000000E+01  1.00800000E+00  1.00800000E+00  1.60000000E+01  1.00800000E+00
  1.00800000E+00  1.60000000E+01  1.00800000E+00  1.00800000E+00  1.60000000E+01
  1.00800000E+00  1.00800000E+00  1.60000000E+01  1.00800000E+00  1.00800000E+00
  1.60000000E+01  1.00800000E+00  1.00800000E+00  1.60000000E+01  1.00800000E+00
  1.00800000E+00  1.60000000E+01  1.00800000E+00  1.00800000E+00  1.60000000E+01
  1.00800000E+00  1.00800000E+00  1.60000000E+01  1.00800000E+00  1.00800000E+00
  1.60000000E+01  1.00800000E+00  1.00800000E+00  1.60000000E+01  1.00800000E+00
  1.00800000E+00  1.60000000E+01  1.00800000E+00  1.00800000E+00  1.60000000E+01
  1.00800000E+00  1.00800000E+00  1.60000000E+01  1.00800000E+00  1.00800000E+00
  1.60000000E+01  1.00800000E+00  1.00800000E+00  1.60000000E+01  1.00800000E+00
  1.00800000E+00  1.60000000E+01  1.00800000E+00  1.00800000E+00  1.60000000E+01
  1.00800000E+00  1.00800000E+00  1.60000000E+01  1.00800000E+00  1.00800000E+00
  1.60000000E+01  1.00800000E+00  1.00800000E+00  1.60000000E+01  1.00800000E+00
  1.00800000E+00  1.60000000E+01  1.00800000E+00  1.00800000E+00  1.60000000E+01
  1.00800000E+00  1.00800000E+00  1.60000000E+01  1.00800000E+00  1.00800000E+00
  1.60000000E+01  1.00800000E+00  1.00800000E+00  1.60000000E+01  1.00800000E+00
  1.00800000E+00  1.60000000E+01  1.00800000E+00  1.00800000E+00  1.60000000E+01
  1.00800000E+00  1.00800000E+00  1.60000000E+01  1.00800000E+00  1.00800000E+00
  1.60000000E+01  1.00800000E+00  1.00800000E+00  1.60000000E+01  1.00800000E+00
  1.00800000E+00  1.60000000E+01  1.00800000E+00  1.00800000E+00  1.60000000E+01
  1.00800000E+00  1.00800000E+00  1.60000000E+01  1.00800000E+00  1.00800000E+00
  1.60000000E+01  1.00800000E+00  1.00800000E+00  1.60000000E+01  1.00800000E+00
  1.00800000E+00  1.60000000E+01  1.00800000E+00  1.00800000E+00  1.60000000E+01
  1.00800000E+00  1.00800000E+00  1.60000000E+01  1.00800000E+00  1.00800000E+00
  1.60000000E+01  1.00800000E+00  1.00800000E+00  1.60000000E+01  1.00800000E+00
  1.00800000E+00  1.60000000E+01  1.00800000E+00  1.00800000E+00  1.60000000E+01
  1.00800000E+00  1.00800000E+00  1.60000000E+01  1.00800000E+00  1.00800000E+00
  1.60000000E+01  1.00800000E+00  1.00800000E+00  1.60000000E+01  1.00800000E+00
  1.00800000E+00  1.60000000E+01  1.00800000E+00  1.00800000E+00  1.60000000E+01
  1.00800000E+00  1.00800000E+00  1.60000000E+01  1.00800000E+00  1.00800000E+00
  1.60000000E+01  1.00800000E+00  1.00800000E+00  1.60000000E+01  1.00800000E+00
  1.00800000E+00  1.60000000E+01  1.00800000E+00  1.00800000E+00  1.60000000E+01
  1.00800000E+00  1.00800000E+00  1.60000000E+01  1.00800000E+00  1.00800000E+00
  1.60000000E+01  1.00800000E+00  1.00800000E+00  1.60000000E+01  1.00800000E+00
  1.00800000E+00  1.60000000E+01  1.00800000E+00  1.00800000E+00  1.60000000E+01
  1.00800000E+00  1.00800000E+00  1.60000000E+01  1.00800000E+00  1.00800000E+00
  1.60000000E+01  1.00800000E+00  1.00800000E+00  1.60000000E+01  1.00800000E+00
  1.00800000E+00  1.60000000E+01  1.00800000E+00  1.00800000E+00  1.60000000E+01
  1.00800000E+00  1.00800000E+00  1.60000000E+01  1.00800000E+00  1.00800000E+00
  1.60000000E+01  1.00800000E+00  1.00800000E+00  1.60000000E+01  1.00800000E+00
  1.00800000E+00  1.60000000E+01  1.00800000E+00  1.00800000E+00  1.60000000E+01
  1.00800000E+00  1.00800000E+00  1.60000000E+01  1.00800000E+00  1.00800000E+00
  1.60000000E+01  1.00800000E+00  1.00800000E+00  1.60000000E+01  1.00800000E+00
  1.00800000E+00  1.60000000E+01  1.00800000E+00  1.00800000E+00  1.60000000E+01
  1.00800000E+00  1.00800000E+00  1.60000000E+01  1.00800000E+00  1.00800000E+00
  1.60000000E+01  1.00800000E+00  1.00800000E+00  1.60000000E+01  1.00800000E+00
  1.00800000E+00  1.60000000E+01  1.00800000E+00  1.00800000E+00  1.60000000E+01
  1.00800000E+00  1.00800000E+00  1.60000000E+01  1.00800000E+00  1.00800000E+00
  1.60000000E+01  1.00800000E+00  1.00800000E+00  1.60000000E+01  1.00800000E+00
  1.00800000E+00  1.60000000E+01  1.00800000E+00  1.00800000E+00  1.60000000E+01
  1.00800000E+00  1.00800000E+00  1.60000000E+01  1.00800000E+00  1.00800000E+00
  1.60000000E+01  1.00800000E+00  1.00800000E+00  1.60000000E+01  1.00800000E+00
  1.00800000E+00  1.60000000E+01  1.00800000E+00  1.00800000E+00  1.60000000E+01
  1.00800000E+00  1.00800000E+00  1.60000000E+01  1.00800000E+00  1.00800000E+00
  1.60000000E+01  1.00800000E+00  1.00800000E+00  1.60000000E+01  1.00800000E+00
  1.00800000E+00  1.60000000E+01  1.00800000E+00  1.00800000E+00  1.60000000E+01
  1.00800000E+00  1.00800000E+00  1.60000000E+01  1.00800000E+00  1.00800000E+00
  1.60000000E+01  1.00800000E+00  1.00800000E+00  1.60000000E+01  1.00800000E+00
  1.00800000E+00  1.60000000E+01  1.00800000E+00  1.00800000E+00  1.60000000E+01
  1.00800000E+00  1.00800000E+00  1.60000000E+01  1.00800000E+00  1.00800000E+00
  1.60000000E+01  1.00800000E+00  1.00800000E+00  1.60000000E+01  1.00800000E+00
  1.00800000E+00  1.60000000E+01  1.00800000E+00  1.00800000E+00  1.60000000E+01
  1.00800000E+00  1.00800000E+00  1.60000000E+01  1.00800000E+00  1.00800000E+00
  1.60000000E+01  1.00800000E+00  1.00800000E+00  1.60000000E+01  1.00800000E+00
  1.00800000E+00  1.60000000E+01  1.00800000E+00  1.00800000E+00  1.60000000E+01
  1.00800000E+00  1.00800000E+00  1.60000000E+01  1.00800000E+00  1.00800000E+00
  1.60000000E+01  1.00800000E+00  1.00800000E+00  1.60000000E+01  1.00800000E+00
  1.00800000E+00  1.60000000E+01  1.00800000E+00  1.00800000E+00  1.60000000E+01
  1.00800000E+00  1.00800000E+00  1.60000000E+01  1.00800000E+00  1.00800000E+00
  1.60000000E+01  1.00800000E+00  1.00800000E+00  1.60000000E+01  1.00800000E+00
  1.00800000E+00  1.60000000E+01  1.00800000E+00  1.00800000E+00  1.60000000E+01
  1.00800000E+00  1.00800000E+00  1.60000000E+01  1.00800000E+00  1.00800000E+00
  1.60000000E+01  1.00800000E+00  1.00800000E+00  1.60000000E+01  1.00800000E+00
  1.00800000E+00  1.60000000E+01  1.00800000E+00  1.00800000E+00  1.60000000E+01
  1.00800000E+00  1.00800000E+00  1.60000000E+01  1.00800000E+00  1.00800000E+00
  1.60000000E+01  1.00800000E+00  1.00800000E+00  1.60000000E+01  1.00800000E+00
  1.00800000E+00  1.60000000E+01  1.00800000E+00  1.00800000E+00  1.60000000E+01
  1.00800000E+00  1.00800000E+00  1.60000000E+01  1.00800000E+00  1.00800000E+00
  1.60000000E+01  1.00800000E+00  1.00800000E+00  1.60000000E+01  1.00800000E+00
  1.00800000E+00  1.60000000E+01  1.00800000E+00  1.00800000E+00  1.60000000E+01
  1.00800000E+00  1.00800000E+00  1.60000000E+01  1.00800000E+00  1.00800000E+00
  1.60000000E+01  1.00800000E+00  1.00800000E+00  1.60000000E+01  1.00800000E+00
  1.00800000E+00  1.60000000E+01  1.00800000E+00  1.00800000E+00  1.60000000E+01
  1.00800000E+00  1.00800000E+00  1.60000000E+01  1.00800000E+00  1.00800000E+00
  1.60000000E+01  1.00800000E+00  1.00800000E+00  1.60000000E+01  1.00800000E+00
  1.00800000E+00  1.60000000E+01  1.00800000E+00  1.00800000E+00  1.60000000E+01
  1.00800000E+00  1.00800000E+00  1.60000000E+01  1.00800000E+00  1.00800000E+00
  1.60000000E+01  1.00800000E+00  1.00800000E+00  1.60000000E+01  1.00800000E+00
  1.00800000E+00  1.60000000E+01  1.00800000E+00  1.00800000E+00  1.60000000E+01
  1.00800000E+00  1.00800000E+00  1.60000000E+01  1.00800000E+00  1.00800000E+00
  1.60000000E+01  1.00800000E+00  1.00800000E+00  1.60000000E+01  1.00800000E+00
  1.00800000E+00  1.60000000E+01  1.00800000E+00  1.00800000E+00  1.60000000E+01
  1.00800000E+00  1.00800000E+00  1.60000000E+01  1.00800000E+00  1.00800000E+00
  1.60000000E+01  1.00800000E+00  1.00800000E+00  1.60000000E+01  1.00800000E+00
  1.00800000E+00  1.60000000E+01  1.00800000E+00  1.00800000E+00  1.60000000E+01
  1.00800000E+00  1.00800000E+00  1.60000000E+01  1.00800000E+00  1.00800000E+00
  1.60000000E+01  1.00800000E+00  1.00800000E+00  1.60000000E+01  1.00800000E+00
  1.00800000E+00  1.60000000E+01  1.00800000E+00  1.00800000E+00  1.60000000E+01
  1.00800000E+00  1.00800000E+00  1.60000000E+01  1.00800000E+00  1.00800000E+00
  1.60000000E+01  1.00800000E+00  1.00800000E+00  1.60000000E+01  1.00800000E+00
  1.00800000E+00  1.60000000E+01  1.00800000E+00  1.00800000E+00  1.60000000E+01
  1.00800000E+00  1.00800000E+00  1.60000000E+01  1.00800000E+00  1.00800000E+00
  1.60000000E+01  1.00800000E+00  1.00800000E+00  1.60000000E+01  1.00800000E+00
  1.00800000E+00  1.60000000E+01  1.00800000E+00  1.00800000E+00  1.60000000E+01
  1.00800000E+00  1.00800000E+00  1.60000000E+01  1.00800000E+00  1.00800000E+00
  1.60000000E+01  1.00800000E+00  1.00800000E+00  1.60000000E+01  1.00800000E+00
  1.00800000E+00  1.60000000E+01  1.00800000E+00  1.00800000E+00  1.60000000E+01
  1.00800000E+00  1.00800000E+00  1.60000000E+01  1.00800000E+00  1.00800000E+00
  1.60000000E+01  1.00800000E+00  1.00800000E+00  1.60000000E+01  1.00800000E+00
  1.00800000E+00  1.60000000E+01  1.00800000E+00  1.00800000E+00  1.60000000E+01
  1.00800000E+00  1.00800000E+00  1.60000000E+01  1.00800000E+00  1.00800000E+00
  1.60000000E+01  1.00800000E+00  1.00800000E+00  1.60000000E+01  1.00800000E+00
  1.00800000E+00  1.60000000E+01  1.00800000E+00  1.00800000E+00  1.60000000E+01
  1.00800000E+00  1.00800000E+00  1.60000000E+01  1.00800000E+00  1.00800000E+00
  1.60000000E+01  1.00800000E+00  1.00800000E+00  1.60000000E+01  1.00800000E+00
  1.00800000E+00  1.60000000E+01  1.00800000E+00  1.00800000E+00  1.60000000E+01
  1.00800000E+00  1.00800000E+00  1.60000000E+01  1.00800000E+00  1.00800000E+00
  1.60000000E+01  1.00800000E+00  1.00800000E+00  1.60000000E+01  1.00800000E+00
  1.00800000E+00  1.60000000E+01  1.00800000E+00  1.00800000E+00  1.60000000E+01
  1.00800000E+00  1.00800000E+00  1.60000000E+01  1.00800000E+00  1.00800000E+00
  1.60000000E+01  1.00800000E+00  1.00800000E+00  1.60000000E+01  1.00800000E+00
  1.00800000E+00  1.60000000E+01  1.00800000E+00  1.00800000E+00  1.60000000E+01
  1.00800000E+00  1.00800000E+00  1.60000000E+01  1.00800000E+00  1.00800000E+00
  1.60000000E+01  1.00800000E+00  1.00800000E+00  1.60000000E+01  1.00800000E+00
  1.00800000E+00  1.60000000E+01  1.00800000E+00  1.00800000E+00  1.60000000E+01
  1.00800000E+00  1.00800000E+00  1.60000000E+01  1.00800000E+00  1.00800000E+00
  1.60000000E+01  1.00800000E+00  1.00800000E+00  1.60000000E+01  1.00800000E+00
  1.00800000E+00  1.60000000E+01  1.00800000E+00  1.00800000E+00  1.60000000E+01
  1.00800000E+00  1.00800000E+00  1.60000000E+01  1.00800000E+00  1.00800000E+00
  1.60000000E+01  1.00800000E+00  1.00800000E+00  1.60000000E+01  1.00800000E+00
  1.00800000E+00  1.60000000E+01  1.00800000E+00  1.00800000E+00  1.60000000E+01
  1.00800000E+00  1.00800000E+00  1.60000000E+01  1.00800000E+00  1.00800000E+00
  1.60000000E+01  1.00800000E+00  1.00800000E+00  1.60000000E+01  1.00800000E+00
  1.00800000E+00  1.60000000E+01  1.00800000E+00  1.00800000E+00  1.60000000E+01
  1.00800000E+00  1.00800000E+00  1.60000000E+01  1.00800000E+00  1.00800000E+00
  1.60000000E+01  1.00800000E+00  1.00800000E+00  1.60000000E+01  1.00800000E+00
  1.00800000E+00  1.60000000E+01  1.00800000E+00  1.00800000E+00  1.60000000E+01
  1.00800000E+00  1.00800000E+00  1.60000000E+01  1.00800000E+00  1.00800000E+00
  1.60000000E+01  1.00800000E+00  1.00800000E+00  1.60000000E+01  1.00800000E+00
  1.00800000E+00  1.60000000E+01  1.00800000E+00  1.00800000E+00  1.60000000E+01
  1.00800000E+00  1.00800000E+00  1.60000000E+01  1.00800000E+00  1.00800000E+00
  1.60000000E+01  1.00800000E+00  1.00800000E+00  1.60000000E+01  1.00800000E+00
  1.00800000E+00  1.60000000E+01  1.00800000E+00  1.00800000E+00  1.60000000E+01
  1.00800000E+00  1.00800000E+00  1.60000000E+01  1.00800000E+00  1.00800000E+00
  1.60000000E+01  1.00800000E+00  1.00800000E+00  1.60000000E+01  1.00800000E+00
  1.00800000E+00  1.60000000E+01  1.00800000E+00  1.00800000E+00  1.60000000E+01
  1.00800000E+00  1.00800000E+00  1.60000000E+01  1.00800000E+00  1.00800000E+00
  1.60000000E+01  1.00800000E+00  1.00800000E+00  1.60000000E+01  1.00800000E+00
  1.00800000E+00  1.60000000E+01  1.00800000E+00  1.00800000E+00  1.60000000E+01
  1.00800000E+00  1.00800000E+00  1.60000000E+01  1.00800000E+00  1.00800000E+00
  1.60000000E+01  1.00800000E+00  1.00800000E+00  1.60000000E+01  1.00800000E+00
  1.00800000E+00  1.60000000E+01  1.00800000E+00  1.00800000E+00  1.60000000E+01
  1.00800000E+00  1.00800000E+00  1.60000000E+01  1.00800000E+00  1.00800000E+00
  1.60000000E+01  1.00800000E+00  1.00800000E+00  1.60000000E+01  1.00800000E+00
  1.00800000E+00  1.60000000E+01  1.00800000E+00  1.00800000E+00  1.60000000E+01
  1.00800000E+00  1.00800000E+00  1.60000000E+01  1.00800000E+00  1.00800000E+00
  1.60000000E+01  1.00800000E+00  1.00800000E+00  1.60000000E+01  1.00800000E+00
  1.00800000E+00  1.60000000E+01  1.00800000E+00  1.00800000E+00  1.60000000E+01
  1.00800000E+00  1.00800000E+00  1.60000000E+01  1.00800000E+00  1.00800000E+00
  1.60000000E+01  1.00800000E+00  1.00800000E+00  1.60000000E+01  1.00800000E+00
  1.00800000E+00  1.60000000E+01  1.00800000E+00  1.00800000E+00  1.60000000E+01
  1.00800000E+00  1.00800000E+00  1.60000000E+01  1.00800000E+00  1.00800000E+00
  1.60000000E+01  1.00800000E+00  1.00800000E+00  1.60000000E+01  1.00800000E+00
  1.00800000E+00  1.60000000E+01  1.00800000E+00  1.00800000E+00  1.60000000E+01
  1.00800000E+00  1.00800000E+00  1.60000000E+01  1.00800000E+00  1.00800000E+00
  1.60000000E+01  1.00800000E+00  1.00800000E+00  1.60000000E+01  1.00800000E+00
  1.00800000E+00  1.60000000E+01  1.00800000E+00  1.00800000E+00  1.60000000E+01
  1.00800000E+00  1.00800000E+00  1.60000000E+01  1.00800000E+00  1.00800000E+00
  1.60000000E+01  1.00800000E+00  1.00800000E+00  1.60000000E+01  1.00800000E+00
  1.00800000E+00  1.60000000E+01  1.00800000E+00  1.00800000E+00  1.60000000E+01
  1.00800000E+00  1.00800000E+00  1.60000000E+01  1.00800000E+00  1.00800000E+00
  1.60000000E+01  1.00800000E+00  1.00800000E+00  1.60000000E+01  1.00800000E+00
  1.00800000E+00  1.60000000E+01  1.00800000E+00  1.00800000E+00  1.60000000E+01
  1.00800000E+00  1.00800000E+00  1.60000000E+01  1.00800000E+00  1.00800000E+00
  1.60000000E+01  1.00800000E+00  1.00800000E+00  1.60000000E+01  1.00800000E+00
  1.00800000E+00  1.60000000E+01  1.00800000E+00  1.00800000E+00  1.60000000E+01
  1.00800000E+00  1.00800000E+00  1.60000000E+01  1.00800000E+00  1.00800000E+00
  1.60000000E+01  1.00800000E+00  1.00800000E+00  1.60000000E+01  1.00800000E+00
  1.00800000E+00  1.60000000E+01  1.00800000E+00  1.00800000E+00  1.60000000E+01
  1.00800000E+00  1.00800000E+00  1.60000000E+01  1.00800000E+00  1.00800000E+00
  1.60000000E+01  1.00800000E+00  1.00800000E+00  1.60000000E+01  1.00800000E+00
  1.00800000E+00  1.60000000E+01  1.00800000E+00  1.00800000E+00  1.60000000E+01
  1.00800000E+00  1.00800000E+00  1.60000000E+01  1.00800000E+00  1.00800000E+00
  1.60000000E+01  1.00800000E+00  1.00800000E+00  1.60000000E+01  1.00800000E+00
  1.00800000E+00  1.60000000E+01  1.00800000E+00  1.00800000E+00  1.60000000E+01
  1.00800000E+00  1.00800000E+00  1.60000000E+01  1.00800000E+00  1.00800000E+00
  1.60000000E+01  1.00800000E+00  1.00800000E+00  1.60000000E+01  1.00800000E+00
  1.00800000E+00  1.60000000E+01  1.00800000E+00  1.00800000E+00  1.60000000E+01
  1.00800000E+00  1.00800000E+00  1.60000000E+01  1.00800000E+00  1.00800000E+00
  1.60000000E+01  1.00800000E+00  1.00800000E+00  1.60000000E+01  1.00800000E+00
  1.00800000E+00  1.60000000E+01  1.00800000E+00  1.00800000E+00  1.60000000E+01
  1.00800000E+00  1.00800000E+00  1.60000000E+01  1.00800000E+00  1.00800000E+00
  1.60000000E+01  1.00800000E+00  1.00800000E+00  1.60000000E+01  1.00800000E+00
  1.00800000E+00  1.60000000E+01  1.00800000E+00  1.00800000E+00  1.60000000E+01
  1.00800000E+00  1.00800000E+00  1.60000000E+01  1.00800000E+00  1.00800000E+00
  1.60000000E+01  1.00800000E+00  1.00800000E+00  1.60000000E+01  1.00800000E+00
  1.00800000E+00  1.60000000E+01  1.00800000E+00  1.00800000E+00  1.60000000E+01
  1.00800000E+00  1.00800000E+00  1.60000000E+01  1.00800000E+00  1.00800000E+00
  1.60000000E+01  1.00800000E+00  1.00800000E+00  1.60000000E+01  1.00800000E+00
  1.00800000E+00  1.60000000E+01  1.00800000E+00  1.00800000E+00  1.60000000E+01
  1.00800000E+00  1.00800000E+00  1.60000000E+01  1.00800000E+00  1.00800000E+00
  1.60000000E+01  1.00800000E+00  1.00800000E+00  1.60000000E+01  1.00800000E+00
  1.00800000E+00  1.60000000E+01  1.00800000E+00  1.00800000E+00  1.60000000E+01
  1.00800000E+00  1.00800000E+00  1.60000000E+01  1.00800000E+00  1.00800000E+00
  1.60000000E+01  1.00800000E+00  1.00800000E+00  1.60000000E+01  1.00800000E+00
  1.00800000E+00  1.60000000E+01  1.00800000E+00  1.00800000E+00  1.60000000E+01
  1.00800000E+00  1.00800000E+00  1.60000000E+01  1.00800000E+00  1.00800000E+00
  1.60000000E+01  1.00800000E+00  1.00800000E+00  1.60000000E+01  1.00800000E+00
  1.00800000E+00  1.60000000E+01  1.00800000E+00  1.00800000E+00  1.60000000E+01
  1.00800000E+00  1.00800000E+00  1.60000000E+01  1.00800000E+00  1.00800000E+00
  1.60000000E+01  1.00800000E+00  1.00800000E+00  1.60000000E+01  1.00800000E+00
  1.00800000E+00  1.60000000E+01  1.00800000E+00  1.00800000E+00  1.60000000E+01
  1.00800000E+00  1.00800000E+00  1.60000000E+01  1.00800000E+00  1.00800000E+00
  1.60000000E+01  1.00800000E+00  1.00800000E+00  1.60000000E+01  1.00800000E+00
  1.00800000E+00  1.60000000E+01  1.00800000E+00  1.00800000E+00  1.60000000E+01
  1.00800000E+00  1.00800000E+00  1.60000000E+01  1.00800000E+00  1.00800000E+00
  1.60000000E+01  1.00800000E+00  1.00800000E+00  1.60000000E+01  1.00800000E+00
  1.00800000E+00  1.60000000E+01  1.00800000E+00  1.00800000E+00  1.60000000E+01
  1.00800000E+00  1.00800000E+00  1.60000000E+01  1.00800000E+00  1.00800000E+00
  1.60000000E+01  1.00800000E+00  1.00800000E+00  1.60000000E+01  1.00800000E+00
  1.00800000E+00  1.60000000E+01  1.00800000E+00  1.00800000E+00  1.60000000E+01
  1.00800000E+00  1.00800000E+00  1.60000000E+01  1.00800000E+00  1.00800000E+00
  1.60000000E+01  1.00800000E+00  1.00800000E+00  1.60000000E+01  1.00800000E+00
  1.00800000E+00  1.60000000E+01  1.00800000E+00  1.00800000E+00  1.60000000E+01
  1.00800000E+00  1.00800000E+00  1.60000000E+01  1.00800000E+00  1.00800000E+00
  1.60000000E+01  1.00800000E+00  1.00800000E+00  1.60000000E+01  1.00800000E+00
  1.00800000E+00  1.60000000E+01  1.00800000E+00  1.00800000E+00  1.60000000E+01
  1.00800000E+00  1.00800000E+00  1.60000000E+01  1.00800000E+00  1.00800000E+00
  1.60000000E+01  1.00800000E+00  1.00800000E+00  1.60000000E+01  1.00800000E+00
  1.00800000E+00  1.60000000E+01  1.00800000E+00  1.00800000E+00  1.60000000E+01
  1.00800000E+00  1.00800000E+00  1.60000000E+01  1.00800000E+00  1.00800000E+00
  1.60000000E+01  1.00800000E+00  1.00800000E+00  1.60000000E+01  1.00800000E+00
  1.00800000E+00  1.60000000E+01  1.00800000E+00  1.00800000E+00  1.60000000E+01
  1.00800000E+00  1.00800000E+00  1.60000000E+01  1.00800000E+00  1.00800000E+00
  1.60000000E+01  1.00800000E+00  1.00800000E+00  1.60000000E+01  1.00800000E+00
  1.00800000E+00  1.60000000E+01  1.00800000E+00  1.00800000E+00  1.60000000E+01
  1.00800000E+00  1.00800000E+00  1.60000000E+01  1.00800000E+00  1.00800000E+00
  1.60000000E+01  1.00800000E+00  1.00800000E+00  1.60000000E+01  1.00800000E+00
  1.00800000E+00  1.60000000E+01  1.00800000E+00  1.00800000E+00  1.60000000E+01
  1.00800000E+00  1.00800000E+00  1.60000000E+01  1.00800000E+00  1.00800000E+00
  1.60000000E+01  1.00800000E+00  1.00800000E+00  1.60000000E+01  1.00800000E+00
  1.00800000E+00  1.60000000E+01  1.00800000E+00  1.00800000E+00  1.60000000E+01
  1.00800000E+00  1.00800000E+00  1.60000000E+01  1.00800000E+00  1.00800000E+00
  1.60000000E+01  1.00800000E+00  1.00800000E+00  1.60000000E+01  1.00800000E+00
  1.00800000E+00  1.60000000E+01  1.00800000E+00  1.00800000E+00  1.60000000E+01
  1.00800000E+00  1.00800000E+00  1.60000000E+01  1.00800000E+00  1.00800000E+00
  1.60000000E+01  1.00800000E+00  1.00800000E+00  1.60000000E+01  1.00800000E+00
  1.00800000E+00  1.60000000E+01  1.00800000E+00  1.00800000E+00  1.60000000E+01
  1.00800000E+00  1.00800000E+00  1.60000000E+01  1.00800000E+00  1.00800000E+00
  1.60000000E+01  1.00800000E+00  1.00800000E+00  1.60000000E+01  1.00800000E+00
  1.00800000E+00  1.60000000E+01  1.00800000E+00  1.00800000E+00  1.60000000E+01
  1.00800000E+00  1.00800000E+00  1.60000000E+01  1.00800000E+00  1.00800000E+00
  1.60000000E+01  1.00800000E+00  1.00800000E+00  1.60000000E+01  1.00800000E+00
  1.00800000E+00  1.60000000E+01  1.00800000E+00  1.00800000E+00  1.60000000E+01
  1.00800000E+00  1.00800000E+00  1.60000000E+01  1.00800000E+00  1.00800000E+00
  1.60000000E+01  1.00800000E+00  1.00800000E+00  1.60000000E+01  1.00800000E+00
  1.00800000E+00  1.60000000E+01  1.00800000E+00  1.00800000E+00  1.60000000E+01
  1.00800000E+00  1.00800000E+00  1.60000000E+01  1.00800000E+00  1.00800000E+00
  1.60000000E+01  1.00800000E+00  1.00800000E+00  1.60000000E+01  1.00800000E+00
  1.00800000E+00  1.60000000E+01  1.00800000E+00  1.00800000E+00  1.60000000E+01
  1.00800000E+00  1.00800000E+00  1.60000000E+01  1.00800000E+00  1.00800000E+00
  1.60000000E+01  1.00800000E+00  1.00800000E+00  1.60000000E+01  1.00800000E+00
  1.00800000E+00  1.60000000E+01  1.00800000E+00  1.00800000E+00  1.60000000E+01
  1.00800000E+00  1.00800000E+00  1.60000000E+01  1.00800000E+00  1.00800000E+00
  1.60000000E+01  1.00800000E+00  1.00800000E+00  1.60000000E+01  1.00800000E+00
  1.00800000E+00  1.60000000E+01  1.00800000E+00  1.00800000E+00  1.60000000E+01
  1.00800000E+00  1.00800000E+00  1.60000000E+01  1.00800000E+00  1.00800000E+00
  1.60000000E+01  1.00800000E+00  1.00800000E+00  1.60000000E+01  1.00800000E+00
  1.00800000E+00  1.60000000E+01  1.00800000E+00  1.00800000E+00  1.60000000E+01
  1.00800000E+00  1.00800000E+00  1.60000000E+01  1.00800000E+00  1.00800000E+00
  1.60000000E+01  1.00800000E+00  1.00800000E+00  1.60000000E+01  1.00800000E+00
  1.00800000E+00  1.60000000E+01  1.00800000E+00  1.00800000E+00  1.60000000E+01
  1.00800000E+00  1.00800000E+00  1.60000000E+01  1.00800000E+00  1.00800000E+00
  1.60000000E+01  1.00800000E+00  1.00800000E+00  1.60000000E+01  1.00800000E+00
  1.00800000E+00  1.60000000E+01  1.00800000E+00  1.00800000E+00  1.60000000E+01
  1.00800000E+00  1.00800000E+00  1.60000000E+01  1.00800000E+00  1.00800000E+00
  1.60000000E+01  1.00800000E+00  1.00800000E+00  1.60000000E+01  1.00800000E+00
  1.00800000E+00  1.60000000E+01  1.00800000E+00  1.00800000E+00  1.60000000E+01
  1.00800000E+00  1.00800000E+00  1.60000000E+01  1.00800000E+00  1.00800000E+00
  1.60000000E+01  1.00800000E+00  1.00800000E+00  1.60000000E+01  1.00800000E+00
  1.00800000E+00  1.60000000E+01  1.00800000E+00  1.00800000E+00  1.60000000E+01
  1.00800000E+00  1.00800000E+00  1.60000000E+01  1.00800000E+00  1.00800000E+00
  1.60000000E+01  1.00800000E+00  1.00800000E+00  1.60000000E+01  1.00800000E+00
  1.00800000E+00  1.60000000E+01  1.00800000E+00  1.00800000E+00  1.60000000E+01
  1.00800000E+00  1.00800000E+00  1.60000000E+01  1.00800000E+00  1.00800000E+00
  1.60000000E+01  1.00800000E+00  1.00800000E+00  1.60000000E+01  1.00800000E+00
  1.00800000E+00  1.60000000E+01  1.00800000E+00  1.00800000E+00  1.60000000E+01
  1.00800000E+00  1.00800000E+00  1.60000000E+01  1.00800000E+00  1.00800000E+00
  1.60000000E+01  1.00800000E+00  1.00800000E+00  1.60000000E+01  1.00800000E+00
  1.00800000E+00  1.60000000E+01  1.00800000E+00  1.00800000E+00  1.60000000E+01
  1.00800000E+00  1.00800000E+00  1.60000000E+01  1.00800000E+00  1.00800000E+00
  1.60000000E+01  1.00800000E+00  1.00800000E+00  1.60000000E+01  1.00800000E+00
  1.00800000E+00  1.60000000E+01  1.00800000E+00  1.00800000E+00  1.60000000E+01
  1.00800000E+00  1.00800000E+00  1.60000000E+01  1.00800000E+00  1.00800000E+00
  1.60000000E+01  1.00800000E+00  1.00800000E+00  1.60000000E+01  1.00800000E+00
  1.00800000E+00  1.60000000E+01  1.00800000E+00  1.00800000E+00  1.60000000E+01
  1.00800000E+00  1.00800000E+00  1.60000000E+01  1.00800000E+00  1.00800000E+00
  1.60000000E+01  1.00800000E+00  1.00800000E+00  1.60000000E+01  1.00800000E+00
  1.00800000E+00  1.60000000E+01  1.00800000E+00  1.00800000E+00  1.60000000E+01
  1.00800000E+00  1.00800000E+00  1.60000000E+01  1.00800000E+00  1.00800000E+00
  1.60000000E+01  1.00800000E+00  1.00800000E+00  1.60000000E+01  1.00800000E+00
  1.00800000E+00  1.60000000E+01  1.00800000E+00  1.00800000E+00  1.60000000E+01
  1.00800000E+00  1.00800000E+00  1.60000000E+01  1.00800000E+00  1.00800000E+00
  1.60000000E+01  1.00800000E+00  1.00800000E+00  1.60000000E+01  1.00800000E+00
  1.00800000E+00  1.60000000E+01  1.00800000E+00  1.00800000E+00  1.60000000E+01
  1.00800000E+00  1.00800000E+00  1.60000000E+01  1.00800000E+00  1.00800000E+00
  1.60000000E+01  1.00800000E+00  1.00800000E+00  1.60000000E+01  1.00800000E+00
  1.00800000E+00  1.60000000E+01  1.00800000E+00  1.00800000E+00  1.60000000E+01
  1.00800000E+00  1.00800000E+00  1.60000000E+01  1.00800000E+00  1.00800000E+00
  1.60000000E+01  1.00800000E+00  1.00800000E+00  1.60000000E+01  1.00800000E+00
  1.00800000E+00  1.60000000E+01  1.00800000E+00  1.00800000E+00  1.60000000E+01
  1.00800000E+00  1.00800000E+00  1.60000000E+01  1.00800000E+00  1.00800000E+00
  1.60000000E+01  1.00800000E+00  1.00800000E+00  1.60000000E+01  1.00800000E+00
  1.00800000E+00  1.60000000E+01  1.00800000E+00  1.00800000E+00  1.60000000E+01
  1.00800000E+00  1.00800000E+00  1.60000000E+01  1.00800000E+00  1.00800000E+00
  1.60000000E+01  1.00800000E+00  1.00800000E+00  1.60000000E+01  1.00800000E+00
  1.00800000E+00  1.60000000E+01  1.00800000E+00  1.00800000E+00  1.60000000E+01
  1.00800000E+00  1.00800000E+00  1.60000000E+01  1.00800000E+00  1.00800000E+00
  1.60000000E+01  1.00800000E+00  1.00800000E+00  1.60000000E+01  1.00800000E+00
  1.00800000E+00  1.60000000E+01  1.00800000E+00  1.00800000E+00  1.60000000E+01
  1.00800000E+00  1.00800000E+00  1.60000000E+01  1.00800000E+00  1.00800000E+00
  1.60000000E+01  1.00800000E+00  1.00800000E+00  1.60000000E+01  1.00800000E+00
  1.00800000E+00  1.60000000E+01  1.00800000E+00  1.00800000E+00  1.60000000E+01
  1.00800000E+00  1.00800000E+00  1.60000000E+01  1.00800000E+00  1.00800000E+00
  1.60000000E+01  1.00800000E+00  1.00800000E+00  1.60000000E+01  1.00800000E+00
  1.00800000E+00  1.60000000E+01  1.00800000E+00  1.00800000E+00  1.60000000E+01
  1.00800000E+00  1.00800000E+00  1.60000000E+01  1.00800000E+00  1.00800000E+00
  1.60000000E+01  1.00800000E+00  1.00800000E+00  1.60000000E+01  1.00800000E+00
  1.00800000E+00  1.60000000E+01  1.00800000E+00  1.00800000E+00  1.60000000E+01
  1.00800000E+00  1.00800000E+00  1.60000000E+01  1.00800000E+00  1.00800000E+00
  1.60000000E+01  1.00800000E+00  1.00800000E+00  1.60000000E+01  1.00800000E+00
  1.00800000E+00  1.60000000E+01  1.00800000E+00  1.00800000E+00  1.60000000E+01
  1.00800000E+00  1.00800000E+00  1.60000000E+01  1.00800000E+00  1.00800000E+00
  1.60000000E+01  1.00800000E+00  1.00800000E+00  1.60000000E+01  1.00800000E+00
  1.00800000E+00  1.60000000E+01  1.00800000E+00  1.00800000E+00  1.60000000E+01
  1.00800000E+00  1.00800000E+00  1.60000000E+01  1.00800000E+00  1.00800000E+00
  1.60000000E+01  1.00800000E+00  1.00800000E+00  1.60000000E+01  1.00800000E+00
  1.00800000E+00  1.60000000E+01  1.00800000E+00  1.00800000E+00  1.60000000E+01
  1.00800000E+00  1.00800000E+00  1.60000000E+01  1.00800000E+00  1.00800000E+00
  1.60000000E+01  1.00800000E+00  1.00800000E+00  1.60000000E+01  1.00800000E+00
  1.00800000E+00  1.60000000E+01  1.00800000E+00  1.00800000E+00  1.60000000E+01
  1.00800000E+00  1.00800000E+00  1.60000000E+01  1.00800000E+00  1.00800000E+00
  1.60000000E+01  1.00800000E+00  1.00800000E+00  1.60000000E+01  1.00800000E+00
  1.00800000E+00  1.60000000E+01  1.00800000E+00  1.00800000E+00  1.60000000E+01
  1.00800000E+00  1.00800000E+00  1.60000000E+01  1.00800000E+00  1.00800000E+00
  1.60000000E+01  1.00800000E+00  1.00800000E+00  1.60000000E+01  1.00800000E+00
  1.00800000E+00  1.60000000E+01  1.00800000E+00  1.00800000E+00  1.60000000E+01
  1.00800000E+00  1.00800000E+00  1.60000000E+01  1.00800000E+00  1.00800000E+00
  1.60000000E+01  1.00800000E+00  1.00800000E+00  1.60000000E+01  1.00800000E+00
  1.00800000E+00  1.60000000E+01  1.00800000E+00  1.00800000E+00  1.60000000E+01
  1.00800000E+00  1.00800000E+00  1.60000000E+01  1.00800000E+00  1.00800000E+00
  1.60000000E+01  1.00800000E+00  1.00800000E+00  1.60000000E+01  1.00800000E+00
  1.00800000E+00  1.60000000E+01  1.00800000E+00  1.00800000E+00  1.60000000E+01
  1.00800000E+00  1.00800000E+00  1.60000000E+01  1.00800000E+00  1.00800000E+00
  1.60000000E+01  1.00800000E+00  1.00800000E+00  1.60000000E+01  1.00800000E+00
  1.00800000E+00  1.60000000E+01  1.00800000E+00  1.00800000E+00  1.60000000E+01
  1.00800000E+00  1.00800000E+00  1.60000000E+01  1.00800000E+00  1.00800000E+00
  1.60000000E+01  1.00800000E+00  1.00800000E+00  1.60000000E+01  1.00800000E+00
  1.00800000E+00  1.60000000E+01  1.00800000E+00  1.00800000E+00  1.60000000E+01
  1.00800000E+00  1.00800000E+00  1.60000000E+01  1.00800000E+00  1.00800000E+00
  1.60000000E+01  1.00800000E+00  1.00800000E+00  1.60000000E+01  1.00800000E+00
  1.00800000E+00  1.60000000E+01  1.00800000E+00  1.00800000E+00  1.60000000E+01
  1.00800000E+00  1.00800000E+00  1.60000000E+01  1.00800000E+00  1.00800000E+00
  1.60000000E+01  1.00800000E+00  1.00800000E+00  1.60000000E+01  1.00800000E+00
  1.00800000E+00  1.60000000E+01  1.00800000E+00  1.00800000E+00  1.60000000E+01
  1.00800000E+00  1.00800000E+00  1.60000000E+01  1.00800000E+00  1.00800000E+00
  1.60000000E+01  1.00800000E+00  1.00800000E+00  1.60000000E+01  1.00800000E+00
  1.00800000E+00  1.60000000E+01  1.00800000E+00  1.00800000E+00  1.60000000E+01
  1.00800000E+00  1.00800000E+00  1.60000000E+01  1.00800000E+00  1.00800000E+00
  1.60000000E+01  1.00800000E+00  1.00800000E+00  1.60000000E+01  1.00800000E+00
  1.00800000E+00  1.60000000E+01  1.00800000E+00  1.00800000E+00  1.60000000E+01
  1.00800000E+00  1.00800000E+00  1.60000000E+01  1.00800000E+00  1.00800000E+00
  1.60000000E+01  1.00800000E+00  1.00800000E+00  1.60000000E+01  1.00800000E+00
  1.00800000E+00  1.60000000E+01  1.00800000E+00  1.00800000E+00  1.60000000E+01
  1.00800000E+00  1.00800000E+00  1.60000000E+01  1.00800000E+00  1.00800000E+00
  1.60000000E+01  1.00800000E+00  1.00800000E+00  1.60000000E+01  1.00800000E+00
  1.00800000E+00  1.60000000E+01  1.00800000E+00  1.00800000E+00  1.60000000E+01
  1.00800000E+00  1.00800000E+00  1.60000000E+01  1.00800000E+00  1.00800000E+00
  1.60000000E+01  1.00800000E+00  1.00800000E+00  1.60000000E+01  1.00800000E+00
  1.00800000E+00  1.60000000E+01  1.00800000E+00  1.00800000E+00  1.60000000E+01
  1.00800000E+00  1.00800000E+00  1.60000000E+01  1.00800000E+00  1.00800000E+00
  1.60000000E+01  1.00800000E+00  1.00800000E+00  1.60000000E+01  1.00800000E+00
  1.00800000E+00  1.60000000E+01  1.00800000E+00  1.00800000E+00  1.60000000E+01
  1.00800000E+00  1.00800000E+00  1.60000000E+01  1.00800000E+00  1.00800000E+00
  1.60000000E+01  1.00800000E+00  1.00800000E+00  1.60000000E+01  1.00800000E+00
  1.00800000E+00  1.60000000E+01  1.00800000E+00  1.00800000E+00  1.60000000E+01
  1.00800000E+00  1.00800000E+00  1.60000000E+01  1.00800000E+00  1.00800000E+00
  1.60000000E+01  1.00800000E+00  1.00800000E+00  1.60000000E+01  1.00800000E+00
  1.00800000E+00  1.60000000E+01  1.00800000E+00  1.00800000E+00  1.60000000E+01
  1.00800000E+00  1.00800000E+00  1.60000000E+01  1.00800000E+00  1.00800000E+00
  1.60000000E+01  1.00800000E+00  1.00800000E+00  1.60000000E+01  1.00800000E+00
  1.00800000E+00  1.60000000E+01  1.00800000E+00  1.00800000E+00  1.60000000E+01
  1.00800000E+00  1.00800000E+00  1.60000000E+01  1.00800000E+00  1.00800000E+00
  1.60000000E+01  1.00800000E+00  1.00800000E+00  1.60000000E+01  1.00800000E+00
  1.00800000E+00  1.60000000E+01  1.00800000E+00  1.00800000E+00  1.60000000E+01
  1.00800000E+00  1.00800000E+00  1.60000000E+01  1.00800000E+00  1.00800000E+00
  1.60000000E+01  1.00800000E+00  1.00800000E+00  1.60000000E+01  1.00800000E+00
  1.00800000E+00  1.60000000E+01  1.00800000E+00  1.00800000E+00  1.60000000E+01
  1.00800000E+00  1.00800000E+00  1.60000000E+01  1.00800000E+00  1.00800000E+00
  1.60000000E+01  1.00800000E+00  1.00800000E+00  1.60000000E+01  1.00800000E+00
  1.00800000E+00  1.60000000E+01  1.00800000E+00  1.00800000E+00  1.60000000E+01
  1.00800000E+00  1.00800000E+00  1.60000000E+01  1.00800000E+00  1.00800000E+00
  1.60000000E+01  1.00800000E+00  1.00800000E+00  1.60000000E+01  1.00800000E+00
  1.00800000E+00  1.60000000E+01  1.00800000E+00  1.00800000E+00  1.60000000E+01
  1.00800000E+00  1.00800000E+00  1.60000000E+01  1.00800000E+00  1.00800000E+00
  1.60000000E+01  1.00800000E+00  1.00800000E+00  1.60000000E+01  1.00800000E+00
  1.00800000E+00  1.60000000E+01  1.00800000E+00  1.00800000E+00  1.60000000E+01
  1.00800000E+00  1.00800000E+00  1.60000000E+01  1.00800000E+00  1.00800000E+00
  1.60000000E+01  1.00800000E+00  1.00800000E+00  1.60000000E+01  1.00800000E+00
  1.00800000E+00  1.60000000E+01  1.00800000E+00  1.00800000E+00  1.60000000E+01
  1.00800000E+00  1.00800000E+00  1.60000000E+01  1.00800000E+00  1.00800000E+00
  1.60000000E+01  1.00800000E+00  1.00800000E+00  1.60000000E+01  1.00800000E+00
  1.00800000E+00  1.60000000E+01  1.00800000E+00  1.00800000E+00  1.60000000E+01
  1.00800000E+00  1.00800000E+00  1.60000000E+01  1.00800000E+00  1.00800000E+00
  1.60000000E+01  1.00800000E+00  1.00800000E+00  1.60000000E+01  1.00800000E+00
  1.00800000E+00  1.60000000E+01  1.00800000E+00  1.00800000E+00  1.60000000E+01
  1.00800000E+00  1.00800000E+00  1.60000000E+01  1.00800000E+00  1.00800000E+00
  1.60000000E+01  1.00800000E+00  1.00800000E+00  1.60000000E+01  1.00800000E+00
  1.00800000E+00  1.60000000E+01  1.00800000E+00  1.00800000E+00  1.60000000E+01
  1.00800000E+00  1.00800000E+00  1.60000000E+01  1.00800000E+00  1.00800000E+00
  1.60000000E+01  1.00800000E+00  1.00800000E+00  1.60000000E+01  1.00800000E+00
  1.00800000E+00  1.60000000E+01  1.00800000E+00  1.00800000E+00  1.60000000E+01
  1.00800000E+00  1.00800000E+00  1.60000000E+01  1.00800000E+00  1.00800000E+00
  1.60000000E+01  1.00800000E+00  1.00800000E+00  1.60000000E+01  1.00800000E+00
  1.00800000E+00  1.60000000E+01  1.00800000E+00  1.00800000E+00  1.60000000E+01
  1.00800000E+00  1.00800000E+00  1.60000000E+01  1.00800000E+00  1.00800000E+00
  1.60000000E+01  1.00800000E+00  1.00800000E+00  1.60000000E+01  1.00800000E+00
  1.00800000E+00  1.60000000E+01  1.00800000E+00  1.00800000E+00  1.60000000E+01
  1.00800000E+00  1.00800000E+00  1.60000000E+01  1.00800000E+00  1.00800000E+00
  1.60000000E+01  1.00800000E+00  1.00800000E+00  1.60000000E+01  1.00800000E+00
  1.00800000E+00  1.60000000E+01  1.00800000E+00  1.00800000E+00  1.60000000E+01
  1.00800000E+00  1.00800000E+00  1.60000000E+01  1.00800000E+00  1.00800000E+00
  1.60000000E+01  1.00800000E+00  1.00800000E+00  1.60000000E+01  1.00800000E+00
  1.00800000E+00  1.60000000E+01  1.00800000E+00  1.00800000E+00  1.60000000E+01
  1.00800000E+00  1.00800000E+00  1.60000000E+01  1.00800000E+00  1.00800000E+00
  1.60000000E+01  1.00800000E+00  1.00800000E+00  1.60000000E+01  1.00800000E+00
  1.00800000E+00  1.60000000E+01  1.00800000E+00  1.00800000E+00  1.60000000E+01
  1.00800000E+00  1.00800000E+00  1.60000000E+01  1.00800000E+00  1.00800000E+00
  1.60000000E+01  1.00800000E+00  1.00800000E+00  1.60000000E+01  1.00800000E+00
  1.00800000E+00  1.60000000E+01  1.00800000E+00  1.00800000E+00  1.60000000E+01
  1.00800000E+00  1.00800000E+00  1.60000000E+01  1.00800000E+00  1.00800000E+00
  1.60000000E+01  1.00800000E+00  1.00800000E+00  1.60000000E+01  1.00800000E+00
  1.00800000E+00  1.60000000E+01  1.00800000E+00  1.00800000E+00  1.60000000E+01
  1.00800000E+00  1.00800000E+00  1.60000000E+01  1.00800000E+00  1.00800000E+00
  1.60000000E+01  1.00800000E+00  1.00800000E+00  1.60000000E+01  1.00800000E+00
  1.00800000E+00  1.60000000E+01  1.00800000E+00  1.00800000E+00  1.60000000E+01
  1.00800000E+00  1.00800000E+00  1.60000000E+01  1.00800000E+00  1.00800000E+00
  1.60000000E+01  1.00800000E+00  1.00800000E+00  1.60000000E+01  1.00800000E+00
  1.00800000E+00  1.60000000E+01  1.00800000E+00  1.00800000E+00  1.60000000E+01
  1.00800000E+00  1.00800000E+00  1.60000000E+01  1.00800000E+00  1.00800000E+00
  1.60000000E+01  1.00800000E+00  1.00800000E+00  1.60000000E+01  1.00800000E+00
  1.00800000E+00  1.60000000E+01  1.00800000E+00  1.00800000E+00  1.60000000E+01
  1.00800000E+00  1.00800000E+00  1.60000000E+01  1.00800000E+00  1.00800000E+00
  1.60000000E+01  1.00800000E+00  1.00800000E+00  1.60000000E+01  1.00800000E+00
  1.00800000E+00  1.60000000E+01  1.00800000E+00  1.00800000E+00  1.60000000E+01
  1.00800000E+00  1.00800000E+00  1.60000000E+01  1.00800000E+00  1.00800000E+00
  1.60000000E+01  1.00800000E+00  1.00800000E+00  1.60000000E+01  1.00800000E+00
  1.00800000E+00  1.60000000E+01  1.00800000E+00  1.00800000E+00  1.60000000E+01
  1.00800000E+00  1.00800000E+00  1.60000000E+01  1.00800000E+00  1.00800000E+00
  1.60000000E+01  1.00800000E+00  1.00800000E+00  1.60000000E+01  1.00800000E+00
  1.00800000E+00  1.60000000E+01  1.00800000E+00  1.00800000E+00  1.60000000E+01
  1.00800000E+00  1.00800000E+00  1.60000000E+01  1.00800000E+00  1.00800000E+00
  1.60000000E+01  1.00800000E+00  1.00800000E+00  1.60000000E+01  1.00800000E+00
  1.00800000E+00  1.60000000E+01  1.00800000E+00  1.00800000E+00  1.60000000E+01
  1.00800000E+00  1.00800000E+00  1.60000000E+01  1.00800000E+00  1.00800000E+00
  1.60000000E+01  1.00800000E+00  1.00800000E+00  1.60000000E+01  1.00800000E+00
  1.00800000E+00  1.60000000E+01  1.00800000E+00  1.00800000E+00  1.60000000E+01
  1.00800000E+00  1.00800000E+00  1.60000000E+01  1.00800000E+00  1.00800000E+00
  1.60000000E+01  1.00800000E+00  1.00800000E+00  1.60000000E+01  1.00800000E+00
  1.00800000E+00  1.60000000E+01  1.00800000E+00  1.00800000E+00  1.60000000E+01
  1.00800000E+00  1.00800000E+00  1.60000000E+01  1.00800000E+00  1.00800000E+00
  1.60000000E+01  1.00800000E+00  1.00800000E+00  1.60000000E+01  1.00800000E+00
  1.00800000E+00  1.60000000E+01  1.00800000E+00  1.00800000E+00  1.60000000E+01
  1.00800000E+00  1.00800000E+00  1.60000000E+01  1.00800000E+00  1.00800000E+00
  1.60000000E+01  1.00800000E+00  1.00800000E+00  1.60000000E+01  1.00800000E+00
  1.00800000E+00  1.60000000E+01  1.00800000E+00  1.00800000E+00  1.60000000E+01
  1.00800000E+00  1.00800000E+00  1.60000000E+01  1.00800000E+00  1.00800000E+00
  1.60000000E+01  1.00800000E+00  1.00800000E+00  1.60000000E+01  1.00800000E+00
  1.00800000E+00  1.60000000E+01  1.00800000E+00  1.00800000E+00  1.60000000E+01
  1.00800000E+00  1.00800000E+00  1.60000000E+01  1.00800000E+00  1.00800000E+00
  1.60000000E+01  1.00800000E+00  1.00800000E+00  1.60000000E+01  1.00800000E+00
  1.00800000E+00  1.60000000E+01  1.00800000E+00  1.00800000E+00  1.60000000E+01
  1.00800000E+00  1.00800000E+00  1.60000000E+01  1.00800000E+00  1.00800000E+00
  1.60000000E+01  1.00800000E+00  1.00800000E+00  1.60000000E+01  1.00800000E+00
  1.00800000E+00  1.60000000E+01  1.00800000E+00  1.00800000E+00  1.60000000E+01
  1.00800000E+00  1.00800000E+00  1.60000000E+01  1.00800000E+00  1.00800000E+00
  1.60000000E+01  1.00800000E+00  1.00800000E+00  1.60000000E+01  1.00800000E+00
  1.00800000E+00  1.60000000E+01  1.00800000E+00  1.00800000E+00  1.60000000E+01
  1.00800000E+00  1.00800000E+00  1.60000000E+01  1.00800000E+00  1.00800000E+00
  1.60000000E+01  1.00800000E+00  1.00800000E+00  1.60000000E+01  1.00800000E+00
  1.00800000E+00  1.60000000E+01  1.00800000E+00  1.00800000E+00  1.60000000E+01
  1.00800000E+00  1.00800000E+00  1.60000000E+01  1.00800000E+00  1.00800000E+00
  1.60000000E+01  1.00800000E+00  1.00800000E+00  1.60000000E+01  1.00800000E+00
  1.00800000E+00  1.60000000E+01  1.00800000E+00  1.00800000E+00  1.60000000E+01
  1.00800000E+00  1.00800000E+00  1.60000000E+01  1.00800000E+00  1.00800000E+00
  1.60000000E+01  1.00800000E+00  1.00800000E+00  1.60000000E+01  1.00800000E+00
  1.00800000E+00  1.60000000E+01  1.00800000E+00  1.00800000E+00  1.60000000E+01
  1.00800000E+00  1.00800000E+00  1.60000000E+01  1.00800000E+00  1.00800000E+00
  1.60000000E+01  1.00800000E+00  1.00800000E+00  1.60000000E+01  1.00800000E+00
  1.00800000E+00  1.60000000E+01  1.00800000E+00  1.00800000E+00  1.60000000E+01
  1.00800000E+00  1.00800000E+00  1.60000000E+01  1.00800000E+00  1.00800000E+00
  1.60000000E+01  1.00800000E+00  1.00800000E+00  1.60000000E+01  1.00800000E+00
  1.00800000E+00  1.60000000E+01  1.00800000E+00  1.00800000E+00  1.60000000E+01
  1.00800000E+00  1.00800000E+00  1.60000000E+01  1.00800000E+00  1.00800000E+00
  1.60000000E+01  1.00800000E+00  1.00800000E+00  1.60000000E+01  1.00800000E+00
  1.00800000E+00  1.60000000E+01  1.00800000E+00  1.00800000E+00  1.60000000E+01
  1.00800000E+00  1.00800000E+00  1.60000000E+01  1.00800000E+00  1.00800000E+00
  1.60000000E+01  1.00800000E+00  1.00800000E+00  1.60000000E+01  1.00800000E+00
  1.00800000E+00  1.60000000E+01  1.00800000E+00  1.00800000E+00  1.60000000E+01
  1.00800000E+00  1.00800000E+00  1.60000000E+01  1.00800000E+00  1.00800000E+00
  1.60000000E+01  1.00800000E+00  1.00800000E+00  1.60000000E+01  1.00800000E+00
  1.00800000E+00  1.60000000E+01  1.00800000E+00  1.00800000E+00  1.60000000E+01
  1.00800000E+00  1.00800000E+00
%FLAG ATOM_TYPE_INDEX                                                           
%FORMAT(10I8)                                                                   
       1       1       1       1       1       1       1       1       1       1
       1       1       1       1       1       1       2       2       2       2
       2       2       2       2       2       2       1       2       2       3
       1       4       5       4       4       1       4       4       1       5
       6       7       7       7       7       8       4       4       9       4
       7       9       8       4       9       4       9       1       3       5
       2       5       5       5       2      10      10       5       5       5
       5      10      10      10      10      11      10      10      10      11
      12      11      10      11       3       1       4       5       4       4
       1       4       4       1       5       6       7       7       7       7
       8       4       4       9       4       7       9       8       4       9
       4       9       1       3       5       2       5       5       5       2
      10      10       5       5       5       5      10      10      10      10
      11      10      10      10      11      12      11      10      11       3
       1       4       5       4       4       1       4       4       1       5
       6       7       7       7       7       8       4       4       9       4
       7       9       8       4       9       4       9       1       3       5
       2       5       5       5       2      10      10       5       5       5
       5      10      10      10      10      11      10      10      10      11
      12      11      10      11       3       1       4       5       4       4
       1       4       4       1       5       6       7       7       7       7
       8       4       4       9       4       7       9       8       4       9
       4       9       1       3       5       2       5       5       5       2
      10      10       5       5       5       5      10      10      10      10
      11      10      10      10      11      12      11      10      11       3
       1       4       5       4       4       1       4       4       1       5
       6       7       7       7       7       8       4       4       9       4
       7       9       8       4       9       4       9       1       3       5
       2       5       5       5       2      10      10       5       5       5
       5      10      10      10      10      11      10      10      10      11
      12      11      10      11       3       1       4       5       4       4
       1       4       4       1       5       6       7       7       7       7
       8       4       4       9       4       7       9       8       4       9
       4       9       1       3       5       2       5       5       5       2
      10      10       5       5       5       5      10      10      10      10
      11      10      10      10      11      12      11      10      11       3
       1       4       5       4       4       1       4       4       1       5
       6       7       7       7       7       8       4       4       9       4
       7       9       8       4       9       4       9       1       3       5
       2       5       5       5       2      10      10       5       5       5
       5      10      10      10      10      11      10      10      10      11
      12      11      10      11       3       1       4       5       4       4
       1       4       4       1       5       6       7       7       7       7
       8       4       4       9       4       7       9       8       4       9
       4       9       1       3       5       2       5       5       5       2
      10      10       5       5       5       5      10      10      10      10
      11      10      10      10      11      12      11      10      11       3
       1       4       5       4       4       1       4       4       1       5
       6       7       7       7       7       8       4       4       9       4
       7       9       8       4       9       4       9       1       3       5
       2       5       5       5       2      10      10       5       5       5
       5      10      10      10      10      11      10      10      10      11
      12      11      10      11       3       1       4       5       4       4
       1       4       4       1       5       6       7       7       7       7
       8       4       4       9       4       7       9       8       4       9
       4       9       1       3       5       2       5       5       5       2
      10      10       5       5       5       5      10      10      10      10
      11      10      10      10      11      12      11      10      11       1
       2       2       1       2       2       3       1       4       5       4
       4       1       4       4       1       5       6       7       7       7
       7       8       4       4       9       4       7       9       8       4
       9       4       9       1       3       5       2       5       5       5
       2      10      10       5       5       5       5      10      10      10
      10      11      10      10      10      11      12      11      10      11
       3       1       4       5       4       4       1       4       4       1
       5       6       7       7       7       7       8       4       4       9
       4       7       9       8       4       9       4       9       1       3
       5       2       5       5       5       2      10      10       5       5
       5       5      10      10      10      10      11      10      10      10
      11      12      11      10      11       3       1       4       5       4
       4       1       4       4       1       5       6       7       7       7
       7       8       4       4       9       4       7       9       8       4
       9       4       9       1       3       5       2       5       5       5
       2      10      10       5       5       5       5      10      10      10
      10      11      10      10      10      11      12      11      10      11
       3       1       4       5       4       4       1       4       4       1
       5       6       7       7       7       7       8       4       4       9
       4       7       9       8       4       9       4       9       1       3
       5       2       5       5       5       2      10      10       5       5
       5       5      10      10      10      10      11      10      10      10
      11      12      11      10      11       3       1       4       5       4
       4       1       4       4       1       5       6       7       7       7
       7       8       4       4       9       4       7       9       8       4
       9       4       9       1       3       5       2       5       5       5
       2      10      10       5       5       5       5      10      10      10
      10      11      10      10      10      11      12      11      10      11
       3       1       4       5       4       4       1       4       4       1
       5       6       7       7       7       7       8       4       4       9
       4       7       9       8       4       9       4       9       1       3
       5       2       5       5       5       2      10      10       5       5
       5       5      10      10      10      10      11      10      10      10
      11      12      11      10      11       3       1       4       5       4
       4       1       4       4       1       5       6       7       7       7
       7       8       4       4       9       4       7       9       8       4
       9       4       9       1       3       5       2       5       5       5
       2      10      10       5       5       5       5      10      10      10
      10      11      10      10      10      11      12      11      10      11
       3       1       4       5       4       4       1       4       4       1
       5       6       7       7       7       7       8       4       4       9
       4       7       9       8       4       9       4       9       1       3
       5       2       5       5       5       2      10      10       5       5
       5       5      10      10      10      10      11      10      10      10
      11      12      11      10      11       3       1       4       5       4
       4       1       4       4       1       5       6       7       7       7
       7       8       4       4       9       4       7       9       8       4
       9       4       9       1       3       5       2       5       5       5
       2      10      10       5       5       5       5      10      10      10
      10      11      10      10      10      11      12      11      10      11
       3       1       4       5       4       4       1       4       4       1
       5       6       7       7       7       7       8       4       4       9
       4       7       9       8       4       9       4       9       1       3
       5       2       5       5       5       2      10      10       5       5
       5       5      10      10      10      10      11      10      10      10
      11      12      11      10      11       1       2       2       1       2
       2       3       1       4       5       4       4       1       4       4
       1       5       6       7       7       7       7       8       4       4
       9       4       7       9       8       4       9       4       9       1
       3       5       2       5       5       5       2      10      10       5
       5       5       5      10      10      10      10      11      10      10
      10      11      12      11      10      11       3       1       4       5
       4       4       1       4       4       1       5       6       7       7
       7       7       8       4       4       9       4       7       9       8
       4       9       4       9       1       3       5       2       5       5
       5       2      10      10       5       5       5       5      10      10
      10      10      11      10      10      10      11      12      11      10
      11       3       1       4       5       4       4       1       4       4
       1       5       6       7       7       7       7       8       4       4
       9       4       7       9       8       4       9       4       9       1
       3       5       2       5       5       5       2      10      10       5
       5       5       5      10      10      10      10      11      10      10
      10      11      12      11      10      11       3       1       4       5
       4       4       1       4       4       1       5       6       7       7
       7       7       8       4       4       9       4       7       9       8
       4       9       4       9       1       3       5       2       5       5
       5       2      10      10       5       5       5       5      10      10
      10      10      11      10      10      10      11      12      11      10
      11       3       1       4       5       4       4       1       4       4
       1       5       6       7       7       7       7       8       4       4
       9       4       7       9       8       4       9       4       9       1
       3       5       2       5       5       5       2      10      10       5
       5       5       5      10      10      10      10      11      10      10
      10      11      12      11      10      11       3       1       4       5
       4       4       1       4       4       1       5       6       7       7
       7       7       8       4       4       9       4       7       9       8
       4       9       4       9       1       3       5       2       5       5
       5       2      10      10       5       5       5       5      10      10
      10      10      11      10      10      10      11      12      11      10
      11       3       1       4       5       4       4       1       4       4
       1       5       6       7       7       7       7       8       4       4
       9       4       7       9       8       4       9       4       9       1
       3       5       2       5       5       5       2      10      10       5
       5       5       5      10      10      10      10      11      10      10
      10      11      12      11      10      11       3       1       4       5
       4       4       1       4       4       1       5       6       7       7
       7       7       8       4       4       9       4       7       9       8
       4       9       4       9       1       3       5       2       5       5
       5       2      10      10       5       5       5       5      10      10
      10      10      11      10      10      10      11      12      11      10
      11       3       1       4       5       4       4       1       4       4
       1       5       6       7       7       7       7       8       4       4
       9       4       7       9       8       4       9       4       9       1
       3       5       2       5       5       5       2      10      10       5
       5       5       5      10      10      10      10      11      10      10
      10      11      12      11      10      11       3       1       4       5
       4       4       1       4       4       1       5       6       7       7
       7       7       8       4       4       9       4       7       9       8
       4       9       4       9       1       3       5       2       5       5
       5       2      10      10       5       5       5       5      10      10
      10      10      11      10      10      10      11      12      11      10
      11       1       2       2      13      14      14      13      14      14
      13      14      14      13      14      14      13      14      14      13
      14      14      13      14      14      13      14      14      13      14
      14      13      14      14      13      14      14      13      14      14
      13      14      14      13      14      14      13      14      14      13
      14      14      13      14      14      13      14      14      13      14
      14      13      14      14      13      14      14      13      14      14
      13      14      14      13      14      14      13      14      14      13
      14      14      13      14      14      13      14      14      13      14
      14      13      14      14      13      14      14      13      14      14
      13      14      14      13      14      14      13      14      14      13
      14      14      13      14      14      13      14      14      13      14
      14      13      14      14      13      14      14      13      14      14
      13      14      14      13      14      14      13      14      14      13
      14      14      13      14      14      13      14      14      13      14
      14      13      14      14      13      14      14      13      14      14
      13      14      14      13      14      14      13      14      14      13
      14      14      13      14      14      13      14      14      13      14
      14      13      14      14      13      14      14      13      14      14
      13      14      14      13      14      14      13      14      14      13
      14      14      13      14      14      13      14      14      13      14
      14      13      14      14      13      14      14      13      14      14
      13      14      14      13      14      14      13      14      14      13
      14      14      13      14      14      13      14      14      13      14
      14      13      14      14      13      14      14      13      14      14
      13      14      14      13      14      14      13      14      14      13
      14      14      13      14      14      13      14      14      13      14
      14      13      14      14      13      14      14      13      14      14
      13      14      14      13      14      14      13      14      14      13
      14      14      13      14      14      13      14      14      13      14
      14      13      14      14      13      14      14      13      14      14
      13      14      14      13      14      14      13      14      14      13
      14      14      13      14      14      13      14      14      13      14
      14      13      14      14      13      14      14      13      14      14
      13      14      14      13      14      14      13      14      14      13
      14      14      13      14      14      13      14      14      13      14
      14      13      14      14      13      14      14      13      14      14
      13      14      14      13      14      14      13      14      14      13
      14      14      13      14      14      13      14      14      13      14
      14      13      14      14      13      14      14      13      14      14
      13      14      14      13      14      14      13      14      14      13
      14      14      13      14      14      13      14      14      13      14
      14      13      14      14      13      14      14      13      14      14
      13      14      14      13      14      14      13      14      14      13
      14      14      13      14      14      13      14      14      13      14
      14      13      14      14      13      14      14      13      14      14
      13      14      14      13      14      14      13      14      14      13
      14      14      13      14      14      13      14      14      13      14
      14      13      14      14      13      14      14      13      14      14
      13      14      14      13      14      14      13      14      14      13
      14      14      13      14      14      13      14      14      13      14
      14      13      14      14      13      14      14      13      14      14
      13      14      14      13      14      14      13      14      14      13
      14      14      13      14      14      13      14      14      13      14
      14      13      14      14      13      14      14      13      14      14
      13      14      14      13      14      14      13      14      14      13
      14      14      13      14      14      13      14      14      13      14
      14      13      14      14      13      14      14      13      14      14
      13      14      14      13      14      14      13      14      14      13
      14      14      13      14      14      13      14      14      13      14
      14      13      14      14      13      14      14      13      14      14
      13      14      14      13      14      14      13      14      14      13
      14      14      13      14      14      13      14      14      13      14
      14      13      14      14      13      14      14      13      14      14
      13      14      14      13      14      14      13      14      14      13
      14      14      13      14      14      13      14      14      13      14
      14      13      14      14      13      14      14      13      14      14
      13      14      14      13      14      14      13      14      14      13
      14      14      13      14      14      13      14      14      13      14
      14      13      14      14      13      14      14      13      14      14
      13      14      14      13      14      14      13      14      14      13
      14      14      13      14      14      13      14      14      13      14
      14      13      14      14      13      14      14      13      14      14
      13      14      14      13      14      14      13      14      14      13
      14      14      13      14      14      13      14      14      13      14
      14      13      14      14      13      14      14      13      14      14
      13      14      14      13      14      14      13      14      14      13
      14      14      13      14      14      13      14      14      13      14
      14      13      14      14      13      14      14      13      14      14
      13      14      14      13      14      14      13      14      14      13
      14      14      13      14      14      13      14      14      13      14
      14      13      14      14      13      14      14      13      14      14
      13      14      14      13      14      14      13      14      14      13
      14      14      13      14      14      13      14      14      13      14
      14      13      14      14      13      14      14      13      14      14
      13      14      14      13      14      14      13      14      14      13
      14      14      13      14      14      13      14      14      13      14
      14      13      14      14      13      14      14      13      14      14
      13      14      14      13      14      14      13      14      14      13
      14      14      13      14      14      13      14      14      13      14
      14      13      14      14      13      14      14      13      14      14
      13      14      14      13      14      14      13      14      14      13
      14      14      13      14      14      13      14      14      13      14
      14      13      14      14      13      14      14      13      14      14
      13      14      14      13      14      14      13      14      14      13
      14      14      13      14      14      13      14      14      13      14
      14      13      14      14      13      14      14      13      14      14
      13      14      14      13      14      14      13      14      14      13
      14      14      13      14      14      13      14      14      13      14
      14      13      14      14      13      14      14      13      14      14
      13      14      14      13      14      14      13      14      14      13
      14      14      13      14      14      13      14      14      13      14
      14      13      14      14      13      14      14      13      14      14
      13      14      14      13      14      14      13      14      14      13
      14      14      13      14      14      13      14      14      13      14
      14      13      14      14      13      14      14      13      14      14
      13      14      14      13      14      14      13      14      14      13
      14      14      13      14      14      13      14      14      13      14
      14      13      14      14      13      14      14      13      14      14
      13      14      14      13      14      14      13      14      14      13
      14      14      13      14      14      13      14      14      13      14
      14      13      14      14      13      14      14      13      14      14
      13      14      14      13      14      14      13      14      14      13
      14      14      13      14      14      13      14      14      13      14
      14      13      14      14      13      14      14      13      14      14
      13      14      14      13      14      14      13      14      14      13
      14      14      13      14      14      13      14      14      13      14
      14      13      14      14      13      14      14      13      14      14
      13      14      14      13      14      14      13      14      14      13
      14      14      13      14      14      13      14      14      13      14
      14      13      14      14      13      14      14      13      14      14
      13      14      14      13      14      14      13      14      14      13
      14      14      13      14      14      13      14      14      13      14
      14      13      14      14      13      14      14      13      14      14
      13      14      14      13      14      14      13      14      14      13
      14      14      13      14      14      13      14      14      13      14
      14      13      14      14      13      14      14      13      14      14
      13      14      14      13      14      14      13      14      14      13
      14      14      13      14      14      13      14      14      13      14
      14      13      14      14      13      14      14      13      14      14
      13      14      14      13      14      14      13      14      14      13
      14      14      13      14      14      13      14      14      13      14
      14      13      14      14      13      14      14      13      14      14
      13      14      14      13      14      14      13      14      14      13
      14      14      13      14      14      13      14      14      13      14
      14      13      14      14      13      14      14      13      14      14
      13      14      14      13      14      14      13      14      14      13
      14      14      13      14      14      13      14      14      13      14
      14      13      14      14      13      14      14      13      14      14
      13      14      14      13      14      14      13      14      14      13
      14      14      13      14      14      13      14      14      13      14
      14      13      14      14      13      14      14      13      14      14
      13      14      14      13      14      14      13      14      14      13
      14      14      13      14      14      13      14      14      13      14
      14      13      14      14      13      14      14      13      14      14
      13      14      14      13      14      14      13      14      14      13
      14      14      13      14      14      13      14      14      13      14
      14      13      14      14      13      14      14      13      14      14
      13      14      14      13      14      14      13      14      14      13
      14      14      13      14      14      13      14      14      13      14
      14      13      14      14      13      14      14      13      14      14
      13      14      14      13      14      14      13      14      14      13
      14      14      13      14      14      13      14      14      13      14
      14      13      14      14      13      14      14      13      14      14
      13      14      14      13      14      14      13      14      14      13
      14      14      13      14      14      13      14      14      13      14
      14      13      14      14      13      14      14      13      14      14
      13      14      14      13      14      14      13      14      14      13
      14      14      13      14      14      13      14      14      13      14
      14      13      14      14      13      14      14      13      14      14
      13      14      14      13      14      14      13      14      14      13
      14      14      13      14      14      13      14      14      13      14
      14      13      14      14      13      14      14      13      14      14
      13      14      14      13      14      14      13      14      14      13
      14      14      13      14      14      13      14      14      13      14
      14      13      14      14      13      14      14      13      14      14
      13      14      14      13      14      14      13      14      14      13
      14      14      13      14      14      13      14      14      13      14
      14      13      14      14      13      14      14      13      14      14
      13      14      14      13      14      14      13      14      14      13
      14      14      13      14      14      13      14      14      13      14
      14      13      14      14      13      14      14      13      14      14
      13      14      14      13      14      14      13      14      14      13
      14      14      13      14      14      13      14      14      13      14
      14      13      14      14      13      14      14      13      14      14
      13      14      14      13      14      14      13      14      14      13
      14      14      13      14      14      13      14      14      13      14
      14      13      14      14      13      14      14      13      14      14
      13      14      14      13      14      14      13      14      14      13
      14      14      13      14      14      13      14      14      13      14
      14      13      14      14      13      14      14      13      14      14
      13      14      14      13      14      14      13      14      14      13
      14      14      13      14      14      13      14      14      13      14
      14      13      14      14      13      14      14      13      14      14
      13      14      14      13      14      14      13      14      14      13
      14      14      13      14      14      13      14      14      13      14
      14      13      14      14      13      14      14      13      14      14
      13      14      14      13      14      14      13      14      14      13
      14      14      13      14      14      13      14      14      13      14
      14      13      14      14      13      14      14      13      14      14
      13      14      14      13      14      14      13      14      14      13
      14      14      13      14      14      13      14      14      13      14
      14      13      14      14      13      14      14      13      14      14
      13      14      14      13      14      14      13      14      14      13
      14      14      13      14      14      13      14      14      13      14
      14      13      14      14      13      14      14      13      14      14
      13      14      14      13      14      14      13      14      14      13
      14      14      13      14      14      13      14      14      13      14
      14      13      14      14      13      14      14      13      14      14
      13      14      14      13      14      14      13      14      14      13
      14      14      13      14      14      13      14      14      13      14
      14      13      14      14      13      14      14      13      14      14
      13      14      14      13      14      14      13      14      14      13
      14      14      13      14      14      13      14      14      13      14
      14      13      14      14      13      14      14      13      14      14
      13      14      14      13      14      14      13      14      14      13
      14      14      13      14      14      13      14      14      13      14
      14      13      14      14      13      14      14      13      14      14
      13      14      14      13      14      14      13      14      14      13
      14      14      13      14      14      13      14      14      13      14
      14      13      14      14      13      14      14      13      14      14
      13      14      14      13      14      14      13      14      14      13
      14      14      13      14      14      13      14      14      13      14
      14      13      14      14      13      14      14      13      14      14
      13      14      14      13      14      14      13      14      14      13
      14      14      13      14      14      13      14      14      13      14
      14      13      14      14      13      14      14      13      14      14
      13      14      14      13      14      14      13      14      14      13
      14      14      13      14      14      13      14      14      13      14
      14      13      14      14      13      14      14      13      14      14
      13      14      14      13      14      14      13      14      14      13
      14      14      13      14      14      13      14      14      13      14
      14      13      14      14      13      14      14      13      14      14
      13      14      14      13      14      14      13      14      14      13
      14      14      13      14      14      13      14      14      13      14
      14      13      14      14      13      14      14      13      14      14
      13      14      14      13      14      14      13      14      14      13
      14      14      13      14      14      13      14      14      13      14
      14      13      14      14      13      14      14      13      14      14
      13      14      14      13      14      14      13      14      14      13
      14      14      13      14      14      13      14      14      13      14
      14      13      14      14      13      14      14      13      14      14
      13      14      14      13      14      14      13      14      14      13
      14      14      13      14      14      13      14      14      13      14
      14      13      14      14      13      14      14      13      14      14
      13      14      14      13      14      14      13      14      14      13
      14      14      13      14      14      13      14      14      13      14
      14      13      14      14      13      14      14      13      14      14
      13      14      14      13      14      14      13      14      14      13
      14      14      13      14      14      13      14      14      13      14
      14      13      14      14      13      14      14      13      14      14
      13      14      14      13      14      14      13      14      14      13
      14      14      13      14      14      13      14      14      13      14
      14      13      14      14      13      14      14      13      14      14
      13      14      14      13      14      14      13      14      14      13
      14      14      13      14      14      13      14      14      13      14
      14      13      14      14      13      14      14      13      14      14
      13      14      14      13      14      14      13      14      14      13
      14      14      13      14      14      13      14      14      13      14
      14      13      14      14      13      14      14      13      14      14
      13      14      14      13      14      14      13      14      14      13
      14      14      13      14      14      13      14      14      13      14
      14      13      14      14      13      14      14      13      14      14
      13      14      14      13      14      14      13      14      14      13
      14      14      13      14      14      13      14      14      13      14
      14      13      14      14      13      14      14      13      14      14
      13      14      14      13      14      14      13      14      14      13
      14      14      13      14      14      13      14      14      13      14
      14      13      14      14      13      14      14      13      14      14
      13      14      14      13      14      14      13      14      14      13
      14      14      13      14      14      13      14      14      13      14
      14      13      14      14      13      14      14      13      14      14
      13      14      14      13      14      14      13      14      14      13
      14      14      13      14      14      13      14      14      13      14
      14      13      14      14      13      14      14      13      14      14
      13      14      14      13      14      14      13      14      14      13
      14      14      13      14      14      13      14      14      13      14
      14      13      14      14      13      14      14      13      14      14
      13      14      14      13      14      14      13      14      14      13
      14      14      13      14      14      13      14      14      13      14
      14      13      14      14      13      14      14      13      14      14
      13      14      14      13      14      14      13      14      14      13
      14      14      13      14      14      13      14      14      13      14
      14      13      14      14      13      14      14      13      14      14
      13      14      14      13      14      14      13      14      14      13
      14      14      13      14      14      13      14      14      13      14
      14      13      14      14      13      14      14      13      14      14
      13      14      14      13      14      14      13      14      14      13
      14      14      13      14      14      13      14      14      13      14
      14      13      14      14      13      14      14      13      14      14
      13      14      14      13      14      14      13      14      14      13
      14      14      13      14      14      13      14      14      13      14
      14      13      14      14      13      14      14      13      14      14
      13      14      14      13      14      14      13      14      14      13
      14      14      13      14      14      13      14      14      13      14
      14      13      14      14      13      14      14      13      14      14
      13      14      14      13      14      14      13      14      14      13
      14      14      13      14      14      13      14      14      13      14
      14      13      14      14      13      14      14      13      14      14
      13      14      14      13      14      14      13      14      14      13
      14      14      13      14      14      13      14      14      13      14
      14      13      14      14      13      14      14      13      14      14
      13      14      14      13      14      14      13      14      14      13
      14      14      13      14      14      13      14      14      13      14
      14      13      14      14      13      14      14      13      14      14
      13      14      14      13      14      14      13      14      14      13
      14      14      13      14      14      13      14      14      13      14
      14      13      14      14      13      14      14      13      14      14
      13      14      14      13      14      14      13      14      14      13
      14      14      13      14      14      13      14      14      13      14
      14      13      14      14      13      14      14      13      14      14
      13      14      14      13      14      14      13      14      14      13
      14      14      13      14      14      13      14      14      13      14
      14      13      14      14      13      14      14      13      14      14
      13      14      14      13      14      14      13      14      14      13
      14      14      13      14      14      13      14      14      13      14
      14      13      14      14      13      14      14      13      14      14
      13      14      14      13      14      14      13      14      14      13
      14      14      13      14      14      13      14      14      13      14
      14      13      14      14      13      14      14      13      14      14
      13      14      14      13      14      14      13      14      14      13
      14      14      13      14      14      13      14      14      13      14
      14      13      14      14      13      14      14      13      14      14
      13      14      14      13      14      14      13      14      14      13
      14      14      13      14      14      13      14      14      13      14
      14      13      14      14      13      14      14      13      14      14
      13      14      14      13      14      14      13      14      14      13
      14      14      13      14      14      13      14      14      13      14
      14      13      14      14      13      14      14      13      14      14
      13      14      14      13      14      14      13      14      14      13
      14      14      13      14      14      13      14      14      13      14
      14      13      14      14      13      14      14      13      14      14
      13      14      14      13      14      14      13      14      14      13
      14      14      13      14      14      13      14      14      13      14
      14      13      14      14      13      14      14      13      14      14
      13      14      14      13      14      14      13      14      14      13
      14      14      13      14      14      13      14      14      13      14
      14      13      14      14      13      14      14      13      14      14
      13      14      14      13      14      14      13      14      14      13
      14      14      13      14      14      13      14      14      13      14
      14      13      14      14      13      14      14      13      14      14
      13      14      14      13      14      14      13      14      14      13
      14      14      13      14      14      13      14      14      13      14
      14      13      14      14      13      14      14      13      14      14
      13      14      14      13      14      14      13      14      14      13
      14      14      13      14      14      13      14      14      13      14
      14      13      14      14      13      14      14      13      14      14
      13      14      14      13      14      14      13      14      14      13
      14      14      13      14      14      13      14      14      13      14
      14      13      14      14      13      14      14      13      14      14
      13      14      14      13      14      14      13      14      14      13
      14      14      13      14      14      13      14      14      13      14
      14      13      14      14      13      14      14      13      14      14
      13      14      14      13      14      14      13      14      14      13
      14      14      13      14      14      13      14      14      13      14
      14      13      14      14      13      14      14      13      14      14
      13      14      14      13      14      14      13      14      14      13
      14      14      13      14      14      13      14      14      13      14
      14      13      14      14      13      14      14      13      14      14
      13      14      14      13      14      14      13      14      14      13
      14      14      13      14      14      13      14      14      13      14
      14      13      14      14      13      14      14      13      14      14
      13      14      14      13      14      14      13      14      14      13
      14      14      13      14      14      13      14      14      13      14
      14      13      14      14      13      14      14      13      14      14
      13      14      14      13      14      14      13      14      14      13
      14      14      13      14      14      13      14      14      13      14
      14      13      14      14      13      14      14      13      14      14
      13      14      14      13      14      14      13      14      14      13
      14      14      13      14      14      13      14      14      13      14
      14      13      14      14      13      14      14      13      14      14
      13      14      14      13      14      14      13      14      14      13
      14      14      13      14      14      13      14      14      13      14
      14      13      14      14      13      14      14      13      14      14
      13      14      14      13      14      14      13      14      14      13
      14      14      13      14      14      13      14      14      13      14
      14      13      14      14      13      14      14      13      14      14
      13      14      14      13      14      14      13      14      14      13
      14      14      13      14      14      13      14      14      13      14
      14      13      14      14      13      14      14      13      14      14
      13      14      14      13      14      14      13      14      14      13
      14      14      13      14      14      13      14      14      13      14
      14      13      14      14      13      14      14      13      14      14
      13      14      14      13      14      14      13      14      14      13
      14      14      13      14      14      13      14      14      13      14
      14      13      14      14      13      14      14      13      14      14
      13      14      14      13      14      14      13      14      14      13
      14      14      13      14      14      13      14      14      13      14
      14      13      14      14      13      14      14      13      14      14
      13      14      14      13      14      14      13      14      14      13
      14      14      13      14      14      13      14      14      13      14
      14      13      14      14      13      14      14      13      14      14
      13      14      14      13      14      14      13      14      14      13
      14      14      13      14      14      13      14      14      13      14
      14      13      14      14      13      14      14      13      14      14
      13      14      14      13      14      14      13      14      14      13
      14      14      13      14      14      13      14      14      13      14
      14      13      14      14      13      14      14      13      14      14
      13      14      14      13      14      14      13      14      14      13
      14      14      13      14      14      13      14      14      13      14
      14      13      14      14      13      14      14      13      14      14
      13      14      14      13      14      14      13      14      14      13
      14      14      13      14      14      13      14      14      13      14
      14      13      14      14      13      14      14      13      14      14
      13      14      14      13      14      14      13      14      14      13
      14      14      13      14      14      13      14      14      13      14
      14      13      14      14      13      14      14      13      14      14
      13      14      14      13      14      14      13      14      14      13
      14      14      13      14      14      13      14      14      13      14
      14      13      14      14      13      14      14      13      14      14
      13      14      14      13      14      14      13      14      14      13
      14      14      13      14      14      13      14      14      13      14
      14      13      14      14      13      14      14      13      14      14
      13      14      14      13      14      14      13      14      14      13
      14      14      13      14      14      13      14      14      13      14
      14      13      14      14      13      14      14      13      14      14
      13      14      14      13      14      14      13      14      14      13
      14      14      13      14      14      13      14      14      13      14
      14      13      14      14      13      14      14      13      14      14
      13      14      14      13      14      14      13      14      14      13
      14      14      13      14      14      13      14      14      13      14
      14      13      14      14      13      14      14      13      14      14
      13      14      14      13      14      14      13      14      14      13
      14      14      13      14      14      13      14      14      13      14
      14      13      14      14      13      14      14      13      14      14
      13      14      14      13      14      14      13      14      14      13
      14      14      13      14      14      13      14      14      13      14
      14      13      14      14      13      14      14      13      14      14
      13      14      14      13      14      14      13      14      14      13
      14      14      13      14      14      13      14      14      13      14
      14      13      14      14      13      14      14      13      14      14
      13      14      14      13      14      14      13      14      14      13
      14      14      13      14      14      13      14      14      13      14
      14      13      14      14      13      14      14      13      14      14
      13      14      14      13      14      14      13      14      14      13
      14      14      13      14      14      13      14      14      13      14
      14      13      14      14      13      14      14      13      14      14
      13      14      14      13      14      14      13      14      14      13
      14      14      13      14      14      13      14      14      13      14
      14      13      14      14      13      14      14      13      14      14
      13      14      14      13      14      14      13      14      14      13
      14      14      13      14      14      13      14      14      13      14
      14      13      14      14      13      14      14      13      14      14
      13      14      14      13      14      14      13      14      14      13
      14      14      13      14      14      13      14      14      13      14
      14      13      14      14      13      14      14      13      14      14
      13      14      14      13      14      14      13      14      14      13
      14      14      13      14      14      13      14      14      13      14
      14      13      14      14      13      14      14      13      14      14
      13      14      14      13      14      14      13      14      14      13
      14      14      13      14      14      13      14      14      13      14
      14      13      14      14      13      14      14      13      14      14
      13      14      14      13      14      14      13      14      14      13
      14      14      13      14      14      13      14      14      13      14
      14      13      14      14      13      14      14      13      14      14
      13      14      14      13      14      14      13      14      14      13
      14      14      13      14      14      13      14      14      13      14
      14      13      14      14      13      14      14      13      14      14
      13      14      14      13      14      14      13      14      14      13
      14      14      13      14      14      13      14      14      13      14
      14      13      14      14      13      14      14      13      14      14
      13      14      14      13      14      14      13      14      14      13
      14      14      13      14      14      13      14      14      13      14
      14      13      14      14      13      14      14      13      14      14
      13      14      14      13      14      14      13      14      14      13
      14      14      13      14      14      13      14      14      13      14
      14      13      14      14      13      14      14      13      14      14
      13      14      14      13      14      14      13      14      14      13
      14      14      13      14      14      13      14      14      13      14
      14      13      14      14      13      14      14      13      14      14
      13      14      14      13      14      14      13      14      14      13
      14      14      13      14      14      13      14      14      13      14
      14      13      14      14      13      14      14      13      14      14
      13      14      14      13      14      14      13      14      14      13
      14      14      13      14      14      13      14      14      13      14
      14      13      14      14      13      14      14      13      14      14
      13      14      14      13      14      14      13      14      14      13
      14      14      13      14      14      13      14      14      13      14
      14      13      14      14      13      14      14      13      14      14
      13      14      14      13      14      14      13      14      14      13
      14      14      13      14      14      13      14      14      13      14
      14      13      14      14      13      14      14      13      14      14
      13      14      14      13      14      14      13      14      14      13
      14      14      13      14      14      13      14      14      13      14
      14      13      14      14      13      14      14      13      14      14
      13      14      14      13      14      14      13      14      14      13
      14      14      13      14      14      13      14      14      13      14
      14      13      14      14      13      14      14      13      14      14
      13      14      14      13      14      14      13      14      14      13
      14      14      13      14      14      13      14      14      13      14
      14      13      14      14      13      14      14      13      14      14
      13      14      14      13      14      14      13      14      14      13
      14      14      13      14      14      13      14      14      13      14
      14      13      14      14      13      14      14      13      14      14
      13      14      14      13      14      14      13      14      14      13
      14      14      13      14      14      13      14      14      13      14
      14      13      14      14      13      14      14      13      14      14
      13      14      14      13      14      14      13      14      14      13
      14      14      13      14      14      13      14      14      13      14
      14      13      14      14      13      14      14      13      14      14
      13      14      14      13      14      14      13      14      14      13
      14      14      13      14      14      13      14      14      13      14
      14      13      14      14      13      14      14      13      14      14
      13      14      14      13      14      14      13      14      14      13
      14      14      13      14      14      13      14      14      13      14
      14      13      14      14      13      14      14      13      14      14
      13      14      14      13      14      14      13      14      14      13
      14      14      13      14      14      13      14      14      13      14
      14      13      14      14      13      14      14      13      14      14
      13      14      14      13      14      14      13      14      14      13
      14      14      13      14      14      13      14      14      13      14
      14      13      14      14      13      14      14      13      14      14
      13      14      14      13      14      14      13      14      14      13
      14      14      13      14      14      13      14      14      13      14
      14      13      14      14      13      14      14      13      14      14
      13      14      14      13      14      14      13      14      14      13
      14      14      13      14      14      13      14      14      13      14
      14      13      14      14      13      14      14      13      14      14
      13      14      14      13      14      14      13      14      14      13
      14      14      13      14      14      13      14      14      13      14
      14      13      14      14      13      14      14      13      14      14
      13      14      14      13      14      14      13      14      14      13
      14      14      13      14      14      13      14      14      13      14
      14      13      14      14      13      14      14      13      14      14
      13      14      14      13      14      14      13      14      14      13
      14      14      13      14      14      13      14      14      13      14
      14      13      14      14      13      14      14      13      14      14
      13      14      14      13      14      14      13      14      14      13
      14      14      13      14      14      13      14      14      13      14
      14      13      14      14      13      14      14      13      14      14
      13      14      14      13      14      14      13      14      14      13
      14      14      13      14      14      13      14      14      13      14
      14      13      14      14      13      14      14      13      14      14
      13      14      14      13      14      14      13      14      14      13
      14      14      13      14      14      13      14      14      13      14
      14      13      14      14      13      14      14      13      14      14
      13      14      14      13      14      14      13      14      14      13
      14      14      13      14      14      13      14      14      13      14
      14      13      14      14      13      14      14      13      14      14
      13      14      14      13      14      14      13      14      14      13
      14      14      13      14      14      13      14      14      13      14
      14      13      14      14      13      14      14      13      14      14
      13      14      14      13      14      14      13      14      14      13
      14      14      13      14      14      13      14      14      13      14
      14      13      14      14      13      14      14      13      14      14
      13      14      14      13      14      14      13      14      14      13
      14      14      13      14      14      13      14      14      13      14
      14      13      14      14      13      14      14      13      14      14
      13      14      14      13      14      14      13      14      14      13
      14      14      13      14      14      13      14      14      13      14
      14      13      14      14      13      14      14      13      14      14
      13      14      14      13      14      14      13      14      14      13
      14      14      13      14      14      13      14      14      13      14
      14      13      14      14      13      14      14      13      14      14
      13      14      14      13      14      14      13      14      14      13
      14      14      13      14      14      13      14      14      13      14
      14      13      14      14      13      14      14      13      14      14
      13      14      14      13      14      14      13      14      14      13
      14      14      13      14      14      13      14      14      13      14
      14      13      14      14      13      14      14      13      14      14
      13      14      14      13      14      14      13      14      14      13
      14      14      13      14      14      13      14      14      13      14
      14      13      14      14      13      14      14      13      14      14
      13      14      14      13      14      14      13      14      14      13
      14      14      13      14      14      13      14      14      13      14
      14      13      14      14      13      14      14      13      14      14
      13      14      14      13      14      14      13      14      14      13
      14      14      13      14      14      13      14      14      13      14
      14      13      14      14      13      14      14      13      14      14
      13      14      14      13      14      14      13      14      14      13
      14      14      13      14      14      13      14      14      13      14
      14      13      14      14      13      14      14      13      14      14
      13      14      14      13      14      14      13      14      14      13
      14      14      13      14      14      13      14      14      13      14
      14      13      14      14      13      14      14      13      14      14
      13      14      14      13      14      14      13      14      14      13
      14      14      13      14      14      13      14      14      13      14
      14      13      14      14      13      14      14      13      14      14
      13      14      14      13      14      14      13      14      14      13
      14      14      13      14      14      13      14      14      13      14
      14      13      14      14      13      14      14      13      14      14
      13      14      14      13      14      14      13      14      14      13
      14      14      13      14      14      13      14      14      13      14
      14      13      14      14      13      14      14      13      14      14
      13      14      14      13      14      14      13      14      14      13
      14      14      13      14      14      13      14      14      13      14
      14      13      14      14      13      14      14      13      14      14
      13      14      14      13      14      14      13      14      14      13
      14      14      13      14      14      13      14      14      13      14
      14      13      14      14      13      14      14      13      14      14
      13      14      14      13      14      14      13      14      14      13
      14      14      13      14      14      13      14      14      13      14
      14      13      14      14      13      14      14      13      14      14
      13      14      14      13      14      14      13      14      14      13
      14      14      13      14      14      13      14      14      13      14
      14      13      14      14      13      14      14      13      14      14
      13      14      14      13      14      14      13      14      14      13
      14      14      13      14      14      13      14      14      13      14
      14      13      14      14      13      14      14      13      14      14
      13      14      14      13      14      14      13      14      14      13
      14      14      13      14      14      13      14      14      13      14
      14      13      14      14      13      14      14      13      14      14
      13      14      14      13      14      14      13      14      14      13
      14      14      13      14      14      13      14      14      13      14
      14      13      14      14      13      14      14      13      14      14
      13      14      14      13      14      14      13      14      14      13
      14      14      13      14      14      13      14      14      13      14
      14      13      14      14      13      14      14      13      14      14
      13      14      14      13      14      14      13      14      14      13
      14      14      13      14      14      13      14      14      13      14
      14      13      14      14      13      14      14      13      14      14
      13      14      14      13      14      14      13      14      14      13
      14      14      13      14      14      13      14      14      13      14
      14      13      14      14      13      14      14      13      14      14
      13      14      14      13      14      14      13      14      14      13
      14      14      13      14      14      13      14      14      13      14
      14      13      14      14      13      14      14      13      14      14
      13      14      14      13      14      14      13      14      14      13
      14      14      13      14      14      13      14      14      13      14
      14      13      14      14      13      14      14      13      14      14
      13      14      14      13      14      14      13      14      14      13
      14      14      13      14      14      13      14      14      13      14
      14      13      14      14      13      14      14      13      14      14
      13      14      14      13      14      14      13      14      14      13
      14      14      13      14      14      13      14      14      13      14
      14      13      14      14      13      14      14      13      14      14
      13      14      14      13      14      14      13      14      14      13
      14      14      13      14      14      13      14      14      13      14
      14      13      14      14      13      14      14      13      14      14
      13      14      14      13      14      14      13      14      14      13
      14      14      13      14      14      13      14      14      13      14
      14      13      14      14      13      14      14      13      14      14
      13      14      14      13      14      14      13      14      14      13
      14      14      13      14      14      13      14      14      13      14
      14      13      14      14      13      14      14      13      14      14
      13      14      14      13      14      14      13      14      14      13
      14      14      13      14      14      13      14      14      13      14
      14      13      14      14      13      14      14      13      14      14
      13      14      14      13      14      14      13      14      14      13
      14      14      13      14      14      13      14      14      13      14
      14      13      14      14      13      14      14      13      14      14
      13      14      14      13      14      14      13      14      14      13
      14      14      13      14      14      13      14      14      13      14
      14      13      14      14      13      14      14      13      14      14
      13      14      14      13      14      14      13      14      14      13
      14      14      13      14      14      13      14      14      13      14
      14      13      14      14      13      14      14      13      14      14
      13      14      14      13      14      14      13      14      14      13
      14      14      13      14      14      13      14      14      13      14
      14      13      14      14      13      14      14      13      14      14
      13      14      14      13      14      14      13      14      14      13
      14      14      13      14      14      13      14      14      13      14
      14      13      14      14      13      14      14      13      14      14
      13      14      14      13      14      14      13      14      14      13
      14      14      13      14      14      13      14      14      13      14
      14      13      14      14      13      14      14      13      14      14
      13      14      14      13      14      14      13      14      14      13
      14      14      13      14      14      13      14      14      13      14
      14      13      14      14      13      14      14      13      14      14
      13      14      14      13      14      14      13      14      14      13
      14      14      13      14      14      13      14      14      13      14
      14      13      14      14      13      14      14      13      14      14
      13      14      14      13      14      14      13      14      14      13
      14      14      13      14      14      13      14      14      13      14
      14      13      14      14      13      14      14      13      14      14
      13      14      14      13      14      14      13      14      14      13
      14      14      13      14      14      13      14      14      13      14
      14      13      14      14      13      14      14      13      14      14
      13      14      14      13      14      14      13      14      14      13
      14      14      13      14      14      13      14      14      13      14
      14      13      14      14      13      14      14      13      14      14
      13      14      14      13      14      14      13      14      14      13
      14      14      13      14      14      13      14      14      13      14
      14      13      14      14      13      14      14      13      14      14
      13      14      14      13      14      14      13      14      14      13
      14      14      13      14      14      13      14      14      13      14
      14      13      14      14      13      14      14      13      14      14
      13      14      14      13      14      14      13      14      14      13
      14      14      13      14      14      13      14      14      13      14
      14      13      14      14      13      14      14      13      14      14
      13      14      14      13      14      14      13      14      14      13
      14      14      13      14      14      13      14      14      13      14
      14      13      14      14      13      14      14      13      14      14
      13      14      14      13      14      14      13      14      14      13
      14      14      13      14      14      13      14      14      13      14
      14      13      14      14      13      14      14      13      14      14
      13      14      14      13      14      14      13      14      14      13
      14      14      13      14      14      13      14      14      13      14
      14      13      14      14      13      14      14      13      14      14
      13      14      14      13      14      14      13      14      14      13
      14      14      13      14      14      13      14      14      13      14
      14      13      14      14      13      14      14      13      14      14
      13      14      14      13      14      14      13      14      14      13
      14      14      13      14      14      13      14      14      13      14
      14      13      14      14      13      14      14      13      14      14
      13      14      14      13      14      14      13      14      14      13
      14      14      13      14      14      13      14      14      13      14
      14      13      14      14      13      14      14      13      14      14
      13      14      14      13      14      14      13      14      14      13
      14      14      13      14      14      13      14      14      13      14
      14      13      14      14      13      14      14      13      14      14
      13      14      14      13      14      14      13      14      14      13
      14      14      13      14      14      13      14      14      13      14
      14      13      14      14      13      14      14      13      14      14
      13      14      14      13      14      14      13      14      14      13
      14      14      13      14      14      13      14      14      13      14
      14      13      14      14      13      14      14      13      14      14
      13      14      14      13      14      14      13      14      14      13
      14      14      13      14      14      13      14      14      13      14
      14      13      14      14      13      14      14      13      14      14
      13      14      14      13      14      14      13      14      14      13
      14      14      13      14      14      13      14      14      13      14
      14      13      14      14      13      14      14      13      14      14
      13      14      14      13      14      14      13      14      14      13
      14      14      13      14      14      13      14      14      13      14
      14      13      14      14      13      14      14      13      14      14
      13      14      14      13      14      14      13      14      14      13
      14      14      13      14      14      13      14      14      13      14
      14      13      14      14      13      14      14      13      14      14
      13      14      14      13      14      14      13      14      14      13
      14      14      13      14      14      13      14      14      13      14
      14      13      14      14      13      14      14      13      14      14
      13      14      14      13      14      14      13      14      14      13
      14      14      13      14      14      13      14      14      13      14
      14      13      14      14      13      14      14      13      14      14
      13      14      14      13      14      14      13      14      14      13
      14      14      13      14      14      13      14      14      13      14
      14      13      14      14      13      14      14      13      14      14
      13      14      14      13      14      14      13      14      14      13
      14      14      13      14      14      13      14      14      13      14
      14      13      14      14      13      14      14      13      14      14
      13      14      14      13      14      14      13      14      14      13
      14      14      13      14      14      13      14      14      13      14
      14      13      14      14      13      14      14      13      14      14
      13      14      14      13      14      14      13      14      14      13
      14      14      13      14      14      13      14      14      13      14
      14      13      14      14      13      14      14      13      14      14
      13      14      14      13      14      14      13      14      14      13
      14      14      13      14      14      13      14      14      13      14
      14      13      14      14      13      14      14      13      14      14
      13      14      14      13      14      14      13      14      14      13
      14      14      13      14      14      13      14      14      13      14
      14      13      14      14      13      14      14      13      14      14
      13      14      14      13      14      14      13      14      14      13
      14      14      13      14      14      13      14      14      13      14
      14      13      14      14      13      14      14      13      14      14
      13      14      14      13      14      14      13      14      14      13
      14      14      13      14      14      13      14      14      13      14
      14      13      14      14      13      14      14      13      14      14
      13      14      14      13      14      14      13      14      14      13
      14      14      13      14      14      13      14      14      13      14
      14      13      14      14      13      14      14      13      14      14
      13      14      14      13      14      14      13      14      14      13
      14      14      13      14      14      13      14      14      13      14
      14      13      14      14      13      14      14      13      14      14
      13      14      14      13      14      14      13      14      14      13
      14      14      13      14      14      13      14      14      13      14
      14      13      14      14      13      14      14      13      14      14
      13      14      14      13      14      14      13      14      14      13
      14      14      13      14      14      13      14      14      13      14
      14      13      14      14      13      14      14      13      14      14
      13      14      14      13      14      14      13      14      14      13
      14      14      13      14      14      13      14      14      13      14
      14      13      14      14      13      14      14      13      14      14
      13      14      14      13      14      14      13      14      14      13
      14      14      13      14      14      13      14      14      13      14
      14      13      14      14      13      14      14      13      14      14
      13      14      14      13      14      14      13      14      14      13
      14      14      13      14      14      13      14      14      13      14
      14      13      14      14      13      14      14      13      14      14
      13      14      14      13      14      14      13      14      14      13
      14      14      13      14      14      13      14      14      13      14
      14      13      14      14      13      14      14      13      14      14
      13      14      14      13      14      14      13      14      14      13
      14      14      13      14      14      13      14      14      13      14
      14      13      14      14      13      14      14      13      14      14
      13      14      14      13      14      14      13      14      14      13
      14      14      13      14      14      13      14      14      13      14
      14      13      14      14      13      14      14      13      14      14
      13      14      14      13      14      14      13      14      14      13
      14      14      13      14      14      13      14      14      13      14
      14      13      14      14      13      14      14      13      14      14
      13      14      14      13      14      14      13      14      14      13
      14      14      13      14      14      13      14      14      13      14
      14      13      14      14      13      14      14      13      14      14
      13      14      14      13      14      14      13      14      14      13
      14      14      13      14      14      13      14      14      13      14
      14      13      14      14      13      14      14      13      14      14
      13      14      14      13      14      14      13      14      14      13
      14      14      13      14      14      13      14      14      13      14
      14      13      14      14      13      14      14      13      14      14
      13      14      14      13      14      14      13      14      14      13
      14      14      13      14      14      13      14      14      13      14
      14      13      14      14      13      14      14      13      14      14
      13      14      14      13      14      14      13      14      14      13
      14      14      13      14      14      13      14      14      13      14
      14      13      14      14      13      14      14      13      14      14
      13      14      14      13      14      14      13      14      14      13
      14      14      13      14      14      13      14      14      13      14
      14      13      14      14      13      14      14      13      14      14
      13      14      14      13      14      14      13      14      14      13
      14      14      13      14      14      13      14      14      13      14
      14      13      14      14      13      14      14      13      14      14
      13      14      14      13      14      14      13      14      14      13
      14      14      13      14      14      13      14      14      13      14
      14      13      14      14      13      14      14      13      14      14
      13      14      14      13      14      14      13      14      14      13
      14      14      13      14      14      13      14      14      13      14
      14      13      14      14      13      14      14      13      14      14
      13      14      14      13      14      14      13      14      14      13
      14      14      13      14      14      13      14      14      13      14
      14      13      14      14      13      14      14      13      14      14
      13      14      14      13      14      14      13      14      14      13
      14      14      13      14      14      13      14      14      13      14
      14      13      14      14      13      14      14      13      14      14
      13      14      14      13      14      14      13      14      14      13
      14      14      13      14      14      13      14      14      13      14
      14      13      14      14      13      14      14      13      14      14
      13      14      14      13      14      14      13      14      14      13
      14      14      13      14      14      13      14      14      13      14
      14      13      14      14      13      14      14      13      14      14
      13      14      14      13      14      14      13      14      14      13
      14      14      13      14      14      13      14      14      13      14
      14      13      14      14      13      14      14      13      14      14
      13      14      14      13      14      14      13      14      14      13
      14      14      13      14      14      13      14      14      13      14
      14      13      14      14      13      14      14      13      14      14
      13      14      14      13      14      14      13      14      14      13
      14      14      13      14      14      13      14      14      13      14
      14      13      14      14      13      14      14      13      14      14
      13      14      14      13      14      14      13      14      14      13
      14      14      13      14      14      13      14      14      13      14
      14      13      14      14      13      14      14      13      14      14
      13      14      14      13      14      14      13      14      14      13
      14      14      13      14      14      13      14      14      13      14
      14      13      14      14      13      14      14      13      14      14
      13      14      14      13      14      14      13      14      14      13
      14      14      13      14      14      13      14      14      13      14
      14      13      14      14      13      14      14      13      14      14
      13      14      14      13      14      14      13      14      14      13
      14      14      13      14      14      13      14      14      13      14
      14      13      14      14      13      14      14      13      14      14
      13      14      14      13      14      14      13      14      14      13
      14      14      13      14      14      13      14      14      13      14
      14      13      14      14      13      14      14      13      14      14
      13      14      14      13      14      14      13      14      14      13
      14      14      13      14      14      13      14      14      13      14
      14      13      14      14      13      14      14      13      14      14
      13      14      14      13      14      14      13      14      14      13
      14      14      13      14      14      13      14      14      13      14
      14      13      14      14      13      14      14      13      14      14
      13      14      14      13      14      14      13      14      14      13
      14      14      13      14      14      13      14      14      13      14
      14      13      14      14      13      14      14      13      14      14
      13      14      14      13      14      14      13      14      14      13
      14      14      13      14      14      13      14      14      13      14
      14      13      14      14      13      14      14      13      14      14
      13      14      14      13      14      14      13      14      14      13
      14      14      13      14      14      13      14      14      13      14
      14      13      14      14      13      14      14      13      14      14
      13      14      14      13      14      14      13      14      14      13
      14      14      13      14      14      13      14      14      13      14
      14      13      14      14      13      14      14      13      14      14
      13      14      14      13      14      14      13      14      14      13
      14      14      13      14      14      13      14      14      13      14
      14      13      14      14      13      14      14      13      14      14
      13      14      14      13      14      14      13      14      14      13
      14      14      13      14      14      13      14      14      13      14
      14      13      14      14      13      14      14      13      14      14
      13      14      14      13      14      14      13      14      14      13
      14      14      13      14      14      13      14      14      13      14
      14      13      14      14      13      14      14      13      14      14
      13      14      14      13      14      14      13      14      14      13
      14      14      13      14      14      13      14      14      13      14
      14      13      14      14      13      14      14      13      14      14
      13      14      14      13      14      14      13      14      14      13
      14      14      13      14      14      13      14      14      13      14
      14      13      14      14      13      14      14      13      14      14
      13      14      14      13      14      14      13      14      14      13
      14      14      13      14      14      13      14      14      13      14
      14      13      14      14      13      14      14      13      14      14
      13      14      14      13      14      14      13      14      14      13
      14      14      13      14      14      13      14      14      13      14
      14      13      14      14      13      14      14      13      14      14
      13      14      14      13      14      14      13      14      14      13
      14      14      13      14      14      13      14      14      13      14
      14      13      14      14      13      14      14      13      14      14
      13      14      14      13      14      14      13      14      14      13
      14      14      13      14      14      13      14      14      13      14
      14      13      14      14      13      14      14      13      14      14
      13      14      14      13      14      14      13      14      14      13
      14      14      13      14      14      13      14      14      13      14
      14      13      14      14      13      14      14      13      14      14
      13      14      14      13      14      14      13      14      14      13
      14      14      13      14      14      13      14      14      13      14
      14      13      14      14      13      14      14      13      14      14
      13      14      14      13      14      14      13      14      14      13
      14      14      13      14      14      13      14      14      13      14
      14      13      14      14      13      14      14      13      14      14
      13      14      14      13      14      14      13      14      14      13
      14      14      13      14      14      13      14      14      13      14
      14      13      14      14      13      14      14      13      14      14
      13      14      14      13      14      14      13      14      14      13
      14      14      13      14      14      13      14      14      13      14
      14      13      14      14      13      14      14      13      14      14
      13      14      14      13      14      14      13      14      14      13
      14      14      13      14      14      13      14      14      13      14
      14      13      14      14      13      14      14      13      14      14
      13      14      14      13      14      14      13      14      14      13
      14      14      13      14      14      13      14      14      13      14
      14      13      14      14      13      14      14      13      14      14
      13      14      14      13      14      14      13      14      14      13
      14      14      13      14      14      13      14      14      13      14
      14      13      14      14      13      14      14      13      14      14
      13      14      14      13      14      14      13      14      14      13
      14      14      13      14      14      13      14      14      13      14
      14      13      14      14      13      14      14      13      14      14
      13      14      14      13      14      14      13      14      14      13
      14      14      13      14      14      13      14      14      13      14
      14      13      14      14      13      14      14      13      14      14
      13      14      14      13      14      14      13      14      14      13
      14      14      13      14      14      13      14      14      13      14
      14      13      14      14      13      14      14      13      14      14
      13      14      14      13      14      14      13      14      14      13
      14      14      13      14      14      13      14      14      13      14
      14      13      14      14      13      14      14      13      14      14
      13      14      14      13      14      14      13      14      14      13
      14      14      13      14      14      13      14      14      13      14
      14      13      14      14      13      14      14      13      14      14
      13      14      14      13      14      14      13      14      14      13
      14      14      13      14      14      13      14      14      13      14
      14      13      14      14      13      14      14      13      14      14
      13      14      14      13      14      14      13      14      14      13
      14      14      13      14      14      13      14      14      13      14
      14      13      14      14      13      14      14      13      14      14
      13      14      14      13      14      14      13      14      14      13
      14      14      13      14      14      13      14      14      13      14
      14      13      14      14      13      14      14      13      14      14
      13      14      14      13      14      14      13      14      14      13
      14      14      13      14      14      13      14      14      13      14
      14      13      14      14      13      14      14      13      14      14
      13      14      14      13      14      14      13      14      14      13
      14      14      13      14      14      13      14      14      13      14
      14      13      14      14      13      14      14      13      14      14
      13      14      14      13      14      14      13      14      14      13
      14      14      13      14      14      13      14      14      13      14
      14      13      14      14      13      14      14      13      14      14
      13      14      14      13      14      14      13      14      14      13
      14      14      13      14      14      13      14      14      13      14
      14      13      14      14      13      14      14      13      14      14
      13      14      14      13      14      14      13      14      14      13
      14      14      13      14      14      13      14      14      13      14
      14      13      14      14      13      14      14      13      14      14
      13      14      14      13      14      14      13      14      14      13
      14      14      13      14      14      13      14      14      13      14
      14      13      14      14      13      14      14      13      14      14
      13      14      14      13      14      14      13      14      14      13
      14      14      13      14      14      13      14      14      13      14
      14      13      14      14      13      14      14      13      14      14
      13      14      14      13      14      14      13      14      14      13
      14      14      13      14      14      13      14      14      13      14
      14      13      14      14      13      14      14      13      14      14
      13      14      14      13      14      14      13      14      14      13
      14      14      13      14      14      13      14      14      13      14
      14      13      14      14      13      14      14      13      14      14
      13      14      14      13      14      14      13      14      14      13
      14      14      13      14      14      13      14      14      13      14
      14      13      14      14      13      14      14      13      14      14
      13      14      14      13      14      14      13      14      14      13
      14      14      13      14      14      13      14      14      13      14
      14      13      14      14      13      14      14      13      14      14
      13      14      14      13      14      14      13      14      14      13
      14      14      13      14      14      13      14      14      13      14
      14      13      14      14      13      14      14      13      14      14
      13      14      14      13      14      14      13      14      14      13
      14      14      13      14      14      13      14      14      13      14
      14      13      14      14      13      14      14      13      14      14
      13      14      14      13      14      14      13      14      14      13
      14      14      13      14      14      13      14      14      13      14
      14      13      14      14      13      14      14      13      14      14
      13      14      14      13      14      14      13      14      14      13
      14      14      13      14      14      13      14      14      13      14
      14      13      14      14      13      14      14      13      14      14
      13      14      14      13      14      14      13      14      14      13
      14      14      13      14      14      13      14      14      13      14
      14      13      14      14      13      14      14      13      14      14
      13      14      14      13      14      14      13      14      14      13
      14      14      13      14      14      13      14      14      13      14
      14      13      14      14      13      14      14      13      14      14
      13      14      14      13      14      14      13      14      14      13
      14      14      13      14      14      13      14      14      13      14
      14      13      14      14      13      14      14      13      14      14
      13      14      14      13      14      14      13      14      14      13
      14      14      13      14      14      13      14      14      13      14
      14      13      14      14      13      14      14      13      14      14
      13      14      14      13      14      14      13      14      14      13
      14      14      13      14      14      13      14      14      13      14
      14      13      14      14      13      14      14      13      14      14
      13      14      14      13      14      14      13      14      14      13
      14      14      13      14      14      13      14      14      13      14
      14      13      14      14      13      14      14      13      14      14
      13      14      14      13      14      14      13      14      14      13
      14      14      13      14      14      13      14      14      13      14
      14      13      14      14      13      14      14      13      14      14
      13      14      14      13      14      14      13      14      14      13
      14      14      13      14      14      13      14      14      13      14
      14      13      14      14      13      14      14      13      14      14
      13      14      14      13      14      14      13      14      14      13
      14      14      13      14      14      13      14      14      13      14
      14      13      14      14      13      14      14      13      14      14
      13      14      14      13      14      14      13      14      14      13
      14      14      13      14      14      13      14      14      13      14
      14      13      14      14      13      14      14      13      14      14
      13      14      14      13      14      14      13      14      14      13
      14      14      13      14      14      13      14      14      13      14
      14      13      14      14      13      14      14      13      14      14
      13      14      14      13      14      14      13      14      14      13
      14      14      13      14      14      13      14      14      13      14
      14      13      14      14      13      14      14      13      14      14
      13      14      14      13      14      14      13      14      14      13
      14      14      13      14      14      13      14      14      13      14
      14      13      14      14      13      14      14      13      14      14
      13      14      14      13      14      14      13      14      14      13
      14      14      13      14      14      13      14      14      13      14
      14      13      14      14      13      14      14      13      14      14
      13      14      14      13      14      14      13      14      14      13
      14      14      13      14      14      13      14      14      13      14
      14      13      14      14      13      14      14      13      14      14
      13      14      14      13      14      14      13      14      14      13
      14      14      13      14      14      13      14      14      13      14
      14      13      14      14      13      14      14      13      14      14
      13      14      14      13      14      14      13      14      14      13
      14      14      13      14      14      13      14      14      13      14
      14      13      14      14      13      14      14      13      14      14
      13      14      14      13      14      14      13      14      14      13
      14      14      13      14      14      13      14      14      13      14
      14      13      14      14      13      14      14      13      14      14
      13      14      14      13      14      14      13      14      14      13
      14      14      13      14      14      13      14      14      13      14
      14      13      14      14      13      14      14      13      14      14
      13      14      14      13      14      14      13      14      14      13
      14      14      13      14      14      13      14      14      13      14
      14      13      14      14      13      14      14      13      14      14
      13      14      14      13      14      14      13      14      14      13
      14      14      13      14      14      13      14      14      13      14
      14      13      14      14      13      14      14      13      14      14
      13      14      14      13      14      14      13      14      14      13
      14      14      13      14      14      13      14      14      13      14
      14      13      14      14      13      14      14      13      14      14
      13      14      14      13      14      14      13      14      14      13
      14      14      13      14      14      13      14      14      13      14
      14      13      14      14      13      14      14      13      14      14
      13      14      14      13      14      14      13      14      14      13
      14      14      13      14      14      13      14      14      13      14
      14      13      14      14      13      14      14      13      14      14
      13      14      14      13      14      14      13      14      14      13
      14      14      13      14      14      13      14      14      13      14
      14      13      14      14      13      14      14      13      14      14
      13      14      14      13      14      14      13      14      14      13
      14      14      13      14      14      13      14      14      13      14
      14      13      14      14      13      14      14      13      14      14
      13      14      14      13      14      14      13      14      14      13
      14      14      13      14      14      13      14      14      13      14
      14      13      14      14      13      14      14      13      14      14
      13      14      14      13      14      14      13      14      14      13
      14      14      13      14      14      13      14      14      13      14
      14      13      14      14      13      14      14      13      14      14
      13      14      14      13      14      14      13      14      14      13
      14      14      13      14      14      13      14      14      13      14
      14      13      14      14      13      14      14      13      14      14
      13      14      14      13      14      14      13      14      14      13
      14      14      13      14      14      13      14      14      13      14
      14      13      14      14      13      14      14      13      14      14
      13      14      14      13      14      14      13      14      14      13
      14      14      13      14      14      13      14      14      13      14
      14      13      14      14      13      14      14      13      14      14
      13      14      14      13      14      14      13      14      14      13
      14      14      13      14      14      13      14      14      13      14
      14      13      14      14      13      14      14      13      14      14
      13      14      14      13      14      14      13      14      14      13
      14      14      13      14      14      13      14      14      13      14
      14      13      14      14      13      14      14      13      14      14
      13      14      14      13      14      14      13      14      14      13
      14      14      13      14      14      13      14      14      13      14
      14      13      14      14      13      14      14      13      14      14
      13      14      14      13      14      14      13      14      14      13
      14      14      13      14      14      13      14      14      13      14
      14      13      14      14      13      14      14      13      14      14
      13      14      14      13      14      14      13      14      14      13
      14      14      13      14      14      13      14      14      13      14
      14      13      14      14      13      14      14      13      14      14
      13      14      14      13      14      14      13      14      14      13
      14      14      13      14      14      13      14      14      13      14
      14      13      14      14      13      14      14      13      14      14
      13      14      14      13      14      14      13      14      14      13
      14      14      13      14      14      13      14      14      13      14
      14      13      14      14      13      14      14      13      14      14
      13      14      14      13      14      14      13      14      14      13
      14      14      13      14      14      13      14      14      13      14
      14      13      14      14      13      14      14      13      14      14
      13      14      14      13      14      14      13      14      14      13
      14      14      13      14      14      13      14      14      13      14
      14      13      14      14      13      14      14      13      14      14
      13      14      14      13      14      14      13      14      14      13
      14      14      13      14      14      13      14      14      13      14
      14      13      14      14      13      14      14      13      14      14
      13      14      14      13      14      14      13      14      14      13
      14      14      13      14      14      13      14      14      13      14
      14      13      14      14      13      14      14      13      14      14
      13      14      14      13      14      14      13      14      14      13
      14      14      13      14      14      13      14      14      13      14
      14      13      14      14      13      14      14      13      14      14
      13      14      14      13      14      14      13      14      14      13
      14      14      13      14      14      13      14      14      13      14
      14      13      14      14      13      14      14      13      14      14
      13      14      14      13      14      14      13      14      14      13
      14      14      13      14      14      13      14      14      13      14
      14      13      14      14      13      14      14      13      14      14
      13      14      14      13      14      14      13      14      14      13
      14      14      13      14      14      13      14      14      13      14
      14      13      14      14      13      14      14      13      14      14
      13      14      14      13      14      14      13      14      14      13
      14      14      13      14      14      13      14      14      13      14
      14      13      14      14      13      14      14      13      14      14
      13      14      14      13      14      14      13      14      14      13
      14      14      13      14      14      13      14      14      13      14
      14      13      14      14      13      14      14      13      14      14
      13      14      14      13      14      14      13      14      14      13
      14      14      13      14      14      13      14      14      13      14
      14      13      14      14      13      14      14      13      14      14
      13      14      14      13      14      14      13      14      14      13
      14      14      13      14      14      13      14      14      13      14
      14      13      14      14      13      14      14      13      14      14
      13      14      14      13      14      14      13      14      14      13
      14      14      13      14      14      13      14      14      13      14
      14      13      14      14      13      14      14      13      14      14
      13      14      14      13      14      14      13      14      14      13
      14      14      13      14      14      13      14      14      13      14
      14      13      14      14      13      14      14      13      14      14
      13      14      14      13      14      14      13      14      14      13
      14      14      13      14      14      13      14      14      13      14
      14      13      14      14      13      14      14      13      14      14
      13      14      14      13      14      14      13      14      14      13
      14      14      13      14      14      13      14      14      13      14
      14      13      14      14      13      14      14      13      14      14
      13      14      14      13      14      14      13      14      14      13
      14      14      13      14      14      13      14      14      13      14
      14      13      14      14      13      14      14      13      14      14
      13      14      14      13      14      14      13      14      14      13
      14      14      13      14      14      13      14      14      13      14
      14      13      14      14      13      14      14      13      14      14
      13      14      14      13      14      14      13      14      14      13
      14      14      13      14      14      13      14      14      13      14
      14      13      14      14      13      14      14      13      14      14
      13      14      14      13      14      14      13      14      14      13
      14      14      13      14      14      13      14      14      13      14
      14      13      14      14      13      14      14      13      14      14
      13      14      14      13      14      14      13      14      14      13
      14      14      13      14      14      13      14      14      13      14
      14      13      14      14      13      14      14      13      14      14
      13      14      14      13      14      14      13      14      14      13
      14      14      13      14      14      13      14      14      13      14
      14      13      14      14      13      14      14      13      14      14
      13      14      14      13      14      14      13      14      14      13
      14      14      13      14      14      13      14      14      13      14
      14      13      14      14      13      14      14      13      14      14
      13      14      14      13      14      14      13      14      14      13
      14      14      13      14      14      13      14      14      13      14
      14      13      14      14      13      14      14      13      14      14
      13      14      14      13      14      14      13      14      14      13
      14      14      13      14      14      13      14      14      13      14
      14      13      14      14      13      14      14      13      14      14
      13      14      14      13      14      14      13      14      14      13
      14      14      13      14      14      13      14      14      13      14
      14      13      14      14      13      14      14      13      14      14
      13      14      14      13      14      14      13      14      14      13
      14      14      13      14      14      13      14      14      13      14
      14      13      14      14      13      14      14      13      14      14
      13      14      14      13      14      14      13      14      14      13
      14      14      13      14      14      13      14      14      13      14
      14      13      14      14      13      14      14      13      14      14
      13      14      14      13      14      14      13      14      14      13
      14      14      13      14      14      13      14      14      13      14
      14      13      14      14      13      14      14      13      14      14
      13      14      14      13      14      14      13      14      14      13
      14      14      13      14      14      13      14      14      13      14
      14      13      14      14      13      14      14      13      14      14
      13      14      14      13      14      14      13      14      14      13
      14      14      13      14      14      13      14      14      13      14
      14      13      14      14      13      14      14      13      14      14
      13      14      14      13      14      14      13      14      14      13
      14      14      13      14      14      13      14      14      13      14
      14      13      14      14      13      14      14      13      14      14
      13      14      14      13      14      14      13      14      14      13
      14      14      13      14      14      13      14      14      13      14
      14      13      14      14      13      14      14      13      14      14
      13      14      14      13      14      14      13      14      14      13
      14      14      13      14      14      13      14      14      13      14
      14      13      14      14      13      14      14      13      14      14
      13      14      14      13      14      14      13      14      14      13
      14      14      13      14      14      13      14      14      13      14
      14      13      14      14      13      14      14      13      14      14
      13      14      14      13      14      14      13      14      14      13
      14      14      13      14      14      13      14      14      13      14
      14      13      14      14      13      14      14      13      14      14
      13      14      14      13      14      14      13      14      14      13
      14      14      13      14      14      13      14      14      13      14
      14      13      14      14      13      14      14      13      14      14
      13      14      14      13      14      14      13      14      14      13
      14      14      13      14      14      13      14      14      13      14
      14      13      14      14      13      14      14      13      14      14
      13      14      14      13      14      14      13      14      14      13
      14      14      13      14      14      13      14      14      13      14
      14      13      14      14      13      14      14      13      14      14
      13      14      14      13      14      14      13      14      14      13
      14      14      13      14      14      13      14      14      13      14
      14      13      14      14      13      14      14      13      14      14
      13      14      14      13      14      14      13      14      14      13
      14      14      13      14      14      13      14      14      13      14
      14      13      14      14      13      14      14      13      14      14
      13      14      14      13      14      14      13      14      14      13
      14      14      13      14      14      13      14      14      13      14
      14      13      14      14      13      14      14      13      14      14
      13      14      14      13      14      14      13      14      14      13
      14      14      13      14      14      13      14      14      13      14
      14      13      14      14      13      14      14      13      14      14
      13      14      14      13      14      14      13      14      14      13
      14      14      13      14      14      13      14      14      13      14
      14      13      14      14      13      14      14      13      14      14
      13      14      14      13      14      14      13      14      14      13
      14      14      13      14      14      13      14      14      13      14
      14      13      14      14      13      14      14      13      14      14
      13      14      14      13      14      14      13      14      14      13
      14      14      13      14      14      13      14      14      13      14
      14      13      14      14      13      14      14      13      14      14
      13      14      14      13      14      14      13      14      14      13
      14      14      13      14      14      13      14      14      13      14
      14      13      14      14      13      14      14      13      14      14
      13      14      14      13      14      14      13      14      14      13
      14      14      13      14      14      13      14      14      13      14
      14      13      14      14      13      14      14      13      14      14
      13      14      14      13      14      14      13      14      14      13
      14      14      13      14      14      13      14      14      13      14
      14      13      14      14      13      14      14      13      14      14
      13      14      14      13      14      14      13      14      14      13
      14      14      13      14      14      13      14      14      13      14
      14      13      14      14      13      14      14      13      14      14
      13      14      14      13      14      14      13      14      14      13
      14      14      13      14      14      13      14      14      13      14
      14      13      14      14      13      14      14      13      14      14
      13      14      14      13      14      14      13      14      14      13
      14      14      13      14      14      13      14      14      13      14
      14      13      14      14      13      14      14      13      14      14
      13      14      14      13      14      14      13      14      14      13
      14      14      13      14      14      13      14      14      13      14
      14      13      14      14      13      14      14      13      14      14
      13      14      14      13      14      14      13      14      14      13
      14      14      13      14      14      13      14      14      13      14
      14      13      14      14      13      14      14      13      14      14
      13      14      14      13      14      14      13      14      14      13
      14      14      13      14      14      13      14      14      13      14
      14      13      14      14      13      14      14      13      14      14
      13      14      14      13      14      14      13      14      14      13
      14      14      13      14      14      13      14      14      13      14
      14      13      14      14      13      14      14      13      14      14
      13      14      14      13      14      14      13      14      14      13
      14      14      13      14      14      13      14      14      13      14
      14      13      14      14      13      14      14      13      14      14
      13      14      14      13      14      14      13      14      14      13
      14      14      13      14      14      13      14      14      13      14
      14      13      14      14      13      14      14      13      14      14
      13      14      14      13      14      14      13      14      14      13
      14      14      13      14      14      13      14      14      13      14
      14      13      14      14      13      14      14      13      14      14
      13      14      14      13      14      14      13      14      14      13
      14      14      13      14      14      13      14      14      13      14
      14      13      14      14      13      14      14      13      14      14
      13      14      14      13      14      14      13      14      14      13
      14      14      13      14      14      13      14      14      13      14
      14      13      14      14      13      14      14      13      14      14
      13      14      14      13      14      14      13      14      14      13
      14      14      13      14      14      13      14      14      13      14
      14      13      14      14      13      14      14      13      14      14
      13      14      14      13      14      14      13      14      14      13
      14      14      13      14      14      13      14      14      13      14
      14      13      14      14      13      14      14      13      14      14
      13      14      14      13      14      14      13      14      14      13
      14      14      13      14      14      13      14      14      13      14
      14      13      14      14      13      14      14      13      14      14
      13      14      14      13      14      14      13      14      14      13
      14      14      13      14      14      13      14      14      13      14
      14      13      14      14      13      14      14      13      14      14
      13      14      14      13      14      14      13      14      14      13
      14      14      13      14      14      13      14      14      13      14
      14      13      14      14      13      14      14      13      14      14
      13      14      14      13      14      14      13      14      14      13
      14      14      13      14      14      13      14      14      13      14
      14      13      14      14      13      14      14      13      14      14
      13      14      14      13      14      14      13      14      14      13
      14      14      13      14      14      13      14      14      13      14
      14      13      14      14      13      14      14      13      14      14
      13      14      14      13      14      14      13      14      14      13
      14      14      13      14      14      13      14      14      13      14
      14      13      14      14      13      14      14      13      14      14
      13      14      14      13      14      14      13      14      14      13
      14      14      13      14      14      13      14      14      13      14
      14      13      14      14      13      14      14      13      14      14
      13      14      14      13      14      14      13      14      14      13
      14      14      13      14      14      13      14      14      13      14
      14      13      14      14      13      14      14      13      14      14
      13      14      14      13      14      14      13      14      14      13
      14      14      13      14      14      13      14      14      13      14
      14      13      14      14      13      14      14      13      14      14
      13      14      14      13      14      14      13      14      14      13
      14      14      13      14      14      13      14      14      13      14
      14      13      14      14      13      14      14      13      14      14
      13      14      14      13      14      14      13      14      14      13
      14      14      13      14      14      13      14      14      13      14
      14      13      14      14      13      14      14      13      14      14
      13      14      14      13      14      14      13      14      14      13
      14      14      13      14      14      13      14      14      13      14
      14      13      14      14      13      14      14      13      14      14
      13      14      14      13      14      14      13      14      14      13
      14      14      13      14      14      13      14      14      13      14
      14      13      14      14      13      14      14      13      14      14
      13      14      14      13      14      14      13      14      14      13
      14      14      13      14      14      13      14      14      13      14
      14      13      14      14      13      14      14      13      14      14
      13      14      14      13      14      14      13      14      14      13
      14      14      13      14      14      13      14      14      13      14
      14      13      14      14      13      14      14      13      14      14
      13      14      14      13      14      14      13      14      14      13
      14      14      13      14      14      13      14      14      13      14
      14      13      14      14      13      14      14      13      14      14
      13      14      14      13      14      14      13      14      14      13
      14      14      13      14      14      13      14      14      13      14
      14      13      14      14      13      14      14      13      14      14
      13      14      14      13      14      14      13      14      14      13
      14      14      13      14      14      13      14      14      13      14
      14      13      14      14      13      14      14      13      14      14
      13      14      14      13      14      14      13      14      14      13
      14      14      13      14      14      13      14      14      13      14
      14      13      14      14      13      14      14      13      14      14
      13      14      14      13      14      14      13      14      14      13
      14      14      13      14      14      13      14      14      13      14
      14      13      14      14      13      14      14      13      14      14
      13      14      14      13      14      14      13      14      14      13
      14      14      13      14      14      13      14      14      13      14
      14      13      14      14      13      14      14      13      14      14
      13      14      14      13      14      14      13      14      14      13
      14      14      13      14      14      13      14      14      13      14
      14      13      14      14      13      14      14      13      14      14
      13      14      14      13      14      14      13      14      14      13
      14      14      13      14      14      13      14      14      13      14
      14      13      14      14      13      14      14      13      14      14
      13      14      14      13      14      14      13      14      14      13
      14      14      13      14      14      13      14      14      13      14
      14      13      14      14      13      14      14      13      14      14
      13      14      14      13      14      14      13      14      14      13
      14      14      13      14      14      13      14      14      13      14
      14      13      14      14      13      14      14      13      14      14
      13      14      14      13      14      14      13      14      14      13
      14      14      13      14      14      13      14      14      13      14
      14      13      14      14      13      14      14      13      14      14
      13      14      14      13      14      14      13      14      14      13
      14      14      13      14      14      13      14      14      13      14
      14      13      14      14      13      14      14      13      14      14
      13      14      14      13      14      14      13      14      14      13
      14      14      13      14      14      13      14      14      13      14
      14      13      14      14      13      14      14      13      14      14
      13      14      14      13      14      14      13      14      14      13
      14      14      13      14      14      13      14      14      13      14
      14      13      14      14      13      14      14      13      14      14
      13      14      14      13      14      14      13      14      14      13
      14      14      13      14      14      13      14      14      13      14
      14      13      14      14      13      14      14      13      14      14
      13      14      14      13      14      14      13      14      14      13
      14      14      13      14      14      13      14      14      13      14
      14      13      14      14      13      14      14      13      14      14
      13      14      14      13      14      14      13      14      14      13
      14      14      13      14      14      13      14      14      13      14
      14      13      14      14      13      14      14      13      14      14
      13      14      14      13      14      14      13      14      14      13
      14      14      13      14      14      13      14      14      13      14
      14      13      14      14      13      14      14      13      14      14
      13      14      14      13      14      14      13      14      14      13
      14      14      13      14      14      13      14      14      13      14
      14      13      14      14      13      14      14      13      14      14
      13      14      14      13      14      14      13      14      14      13
      14      14      13      14      14      13      14      14      13      14
      14      13      14      14      13      14      14      13      14      14
      13      14      14      13      14      14      13      14      14      13
      14      14      13      14      14      13      14      14      13      14
      14      13      14      14      13      14      14      13      14      14
      13      14      14      13      14      14      13      14      14      13
      14      14      13      14      14      13      14      14      13      14
      14      13      14      14      13      14      14      13      14      14
      13      14      14      13      14      14      13      14      14      13
      14      14      13      14      14      13      14      14      13      14
      14      13      14      14      13      14      14      13      14      14
      13      14      14      13      14      14      13      14      14      13
      14      14      13      14      14      13      14      14      13      14
      14      13      14      14      13      14      14      13      14      14
      13      14      14      13      14      14      13      14      14      13
      14      14      13      14      14      13      14      14      13      14
      14      13      14      14      13      14      14      13      14      14
      13      14      14      13      14      14      13      14      14      13
      14      14      13      14      14      13      14      14      13      14
      14      13      14      14      13      14      14      13      14      14
      13      14      14      13      14      14      13      14      14      13
      14      14      13      14      14      13      14      14      13      14
      14      13      14      14      13      14      14      13      14      14
      13      14      14      13      14      14      13      14      14      13
      14      14      13      14      14      13      14      14      13      14
      14      13      14      14      13      14      14      13      14      14
      13      14      14      13      14      14      13      14      14      13
      14      14      13      14      14      13      14      14      13      14
      14      13      14      14      13      14      14      13      14      14
      13      14      14      13      14      14      13      14      14      13
      14      14      13      14      14      13      14      14      13      14
      14      13      14      14      13      14      14      13      14      14
      13      14      14      13      14      14      13      14      14      13
      14      14      13      14      14      13      14      14      13      14
      14      13      14      14      13      14      14      13      14      14
      13      14      14      13      14      14      13      14      14      13
      14      14      13      14      14      13      14      14      13      14
      14      13      14      14      13      14      14      13      14      14
      13      14      14      13      14      14      13      14      14      13
      14      14      13      14      14      13      14      14      13      14
      14      13      14      14      13      14      14      13      14      14
      13      14      14      13      14      14      13      14      14      13
      14      14      13      14      14      13      14      14      13      14
      14      13      14      14      13      14      14      13      14      14
      13      14      14      13      14      14      13      14      14      13
      14      14      13      14      14      13      14      14      13      14
      14      13      14      14      13      14      14      13      14      14
      13      14      14      13      14      14      13      14      14      13
      14      14      13      14      14      13      14      14      13      14
      14      13      14      14      13      14      14      13      14      14
      13      14      14      13      14      14      13      14      14      13
      14      14      13      14      14      13      14      14      13      14
      14      13      14      14      13      14      14      13      14      14
      13      14      14      13      14      14      13      14      14      13
      14      14      13      14      14      13      14      14      13      14
      14      13      14      14      13      14      14      13      14      14
      13      14      14      13      14      14      13      14      14      13
      14      14      13      14      14      13      14      14      13      14
      14      13      14      14      13      14      14      13      14      14
      13      14      14      13      14      14      13      14      14      13
      14      14      13      14      14      13      14      14      13      14
      14      13      14      14      13      14      14      13      14      14
      13      14      14      13      14      14      13      14      14      13
      14      14      13      14      14      13      14      14      13      14
      14      13      14      14      13      14      14      13      14      14
      13      14      14      13      14      14      13      14      14      13
      14      14      13      14      14      13      14      14      13      14
      14      13      14      14      13      14      14      13      14      14
      13      14      14      13      14      14      13      14      14      13
      14      14      13      14      14      13      14      14      13      14
      14      13      14      14      13      14      14      13      14      14
      13      14      14      13      14      14      13      14      14      13
      14      14      13      14      14      13      14      14      13      14
      14      13      14      14      13      14      14      13      14      14
      13      14      14      13      14      14      13      14      14      13
      14      14      13      14      14      13      14      14      13      14
      14      13      14      14      13      14      14      13      14      14
      13      14      14      13      14      14      13      14      14      13
      14      14      13      14      14      13      14      14      13      14
      14      13      14      14      13      14      14      13      14      14
      13      14      14      13      14      14      13      14      14      13
      14      14      13      14      14      13      14      14      13      14
      14      13      14      14      13      14      14      13      14      14
      13      14      14      13      14      14      13      14      14      13
      14      14      13      14      14      13      14      14      13      14
      14      13      14      14      13      14      14      13      14      14
      13      14      14      13      14      14      13      14      14      13
      14      14      13      14      14      13      14      14      13      14
      14      13      14      14      13      14      14      13      14      14
      13      14      14      13      14      14      13      14      14      13
      14      14      13      14      14      13      14      14      13      14
      14      13      14      14      13      14      14      13      14      14
      13      14      14      13      14      14      13      14      14      13
      14      14      13      14      14      13      14      14      13      14
      14      13      14      14      13      14      14      13      14      14
      13      14      14      13      14      14      13      14      14      13
      14      14      13      14      14      13      14      14      13      14
      14      13      14      14      13      14      14      13      14      14
      13      14      14      13      14      14      13      14      14      13
      14      14      13      14      14      13      14      14      13      14
      14      13      14      14      13      14      14      13      14      14
      13      14      14      13      14      14      13      14      14      13
      14      14      13      14      14      13      14      14      13      14
      14      13      14      14      13      14      14      13      14      14
      13      14      14      13      14      14      13      14      14      13
      14      14      13      14      14      13      14      14      13      14
      14      13      14      14      13      14      14      13      14      14
      13      14      14      13      14      14      13      14      14      13
      14      14      13      14      14      13      14      14      13      14
      14      13      14      14      13      14      14      13      14      14
      13      14      14      13      14      14      13      14      14      13
      14      14      13      14      14      13      14      14      13      14
      14      13      14      14      13      14      14      13      14      14
      13      14      14      13      14      14      13      14      14      13
      14      14      13      14      14      13      14      14      13      14
      14      13      14      14      13      14      14      13      14      14
      13      14      14      13      14      14      13      14      14      13
      14      14      13      14      14      13      14      14      13      14
      14      13      14      14      13      14      14      13      14      14
      13      14      14      13      14      14      13      14      14      13
      14      14      13      14      14      13      14      14      13      14
      14      13      14      14      13      14      14      13      14      14
      13      14      14      13      14      14      13      14      14      13
      14      14      13      14      14      13      14      14      13      14
      14      13      14      14      13      14      14      13      14      14
      13      14      14      13      14      14      13      14      14      13
      14      14      13      14      14      13      14      14      13      14
      14      13      14      14      13      14      14      13      14      14
      13      14      14      13      14      14      13      14      14      13
      14      14      13      14      14      13      14      14      13      14
      14      13      14      14      13      14      14      13      14      14
      13      14      14      13      14      14      13      14      14      13
      14      14      13      14      14      13      14      14      13      14
      14      13      14      14      13      14      14      13      14      14
      13      14      14      13      14      14      13      14      14      13
      14      14      13      14      14      13      14      14      13      14
      14      13      14      14      13      14      14      13      14      14
      13      14      14      13      14      14      13      14      14      13
      14      14      13      14      14      13      14      14      13      14
      14      13      14      14      13      14      14      13      14      14
      13      14      14      13      14      14      13      14      14      13
      14      14      13      14      14      13      14      14      13      14
      14      13      14      14      13      14      14      13      14      14
      13      14      14      13      14      14      13      14      14      13
      14      14      13      14      14      13      14      14      13      14
      14      13      14      14      13      14      14      13      14      14
      13      14      14      13      14      14      13      14      14      13
      14      14      13      14      14      13      14      14      13      14
      14      13      14      14      13      14      14      13      14      14
      13      14      14      13      14      14      13      14      14      13
      14      14      13      14      14      13      14      14      13      14
      14      13      14      14      13      14      14      13      14      14
      13      14      14      13      14      14      13      14      14      13
      14      14      13      14      14      13      14      14      13      14
      14      13      14      14      13      14      14      13      14      14
      13      14      14      13      14      14      13      14      14      13
      14      14      13      14      14      13      14      14      13      14
      14      13      14      14      13      14      14      13      14      14
      13      14      14      13      14      14      13      14      14      13
      14      14      13      14      14      13      14      14      13      14
      14      13      14      14      13      14      14      13      14      14
      13      14      14      13      14      14      13      14      14      13
      14      14      13      14      14      13      14      14      13      14
      14      13      14      14      13      14      14      13      14      14
      13      14      14      13      14      14      13      14      14      13
      14      14      13      14      14      13      14      14      13      14
      14      13      14      14      13      14      14      13      14      14
      13      14      14      13      14      14      13      14      14      13
      14      14      13      14      14      13      14      14      13      14
      14      13      14      14      13      14      14      13      14      14
      13      14      14      13      14      14      13      14      14      13
      14      14      13      14      14      13      14      14      13      14
      14      13      14      14      13      14      14      13      14      14
      13      14      14      13      14      14      13      14      14      13
      14      14      13      14      14      13      14      14      13      14
      14      13      14      14      13      14      14      13      14      14
      13      14      14      13      14      14      13      14      14      13
      14      14      13      14      14      13      14      14      13      14
      14      13      14      14      13      14      14      13      14      14
      13      14      14      13      14      14      13      14      14      13
      14      14      13      14      14      13      14      14      13      14
      14      13      14      14      13      14      14      13      14      14
      13      14      14      13      14      14      13      14      14      13
      14      14      13      14      14      13      14      14      13      14
      14      13      14      14      13      14      14      13      14      14
      13      14      14      13      14      14      13      14      14      13
      14      14      13      14      14      13      14      14      13      14
      14      13      14      14      13      14      14      13      14      14
      13      14      14      13      14      14      13      14      14      13
      14      14      13      14      14      13      14      14      13      14
      14      13      14      14      13      14      14      13      14      14
      13      14      14      13      14      14      13      14      14      13
      14      14      13      14      14      13      14      14      13      14
      14      13      14      14      13      14      14      13      14      14
      13      14      14      13      14      14      13      14      14      13
      14      14      13      14      14      13      14      14      13      14
      14      13      14      14      13      14      14      13      14      14
      13      14      14      13      14      14      13      14      14      13
      14      14      13      14      14      13      14      14      13      14
      14      13      14      14      13      14      14      13      14      14
      13      14      14      13      14      14      13      14      14      13
      14      14      13      14      14      13      14      14      13      14
      14      13      14      14      13      14      14      13      14      14
      13      14      14      13      14      14      13      14      14      13
      14      14      13      14      14      13      14      14      13      14
      14      13      14      14      13      14      14      13      14      14
      13      14      14      13      14      14      13      14      14      13
      14      14      13      14      14      13      14      14      13      14
      14      13      14      14      13      14      14      13      14      14
      13      14      14      13      14      14      13      14      14      13
      14      14      13      14      14      13      14      14      13      14
      14      13      14      14      13      14      14      13      14      14
      13      14      14      13      14      14      13      14      14      13
      14      14      13      14      14      13      14      14      13      14
      14      13      14      14      13      14      14      13      14      14
      13      14      14      13      14      14      13      14      14      13
      14      14      13      14      14      13      14      14      13      14
      14      13      14      14      13      14      14      13      14      14
      13      14      14      13      14      14      13      14      14      13
      14      14      13      14      14      13      14      14      13      14
      14      13      14      14      13      14      14      13      14      14
      13      14      14      13      14      14      13      14      14      13
      14      14      13      14      14      13      14      14      13      14
      14      13      14      14      13      14      14      13      14      14
      13      14      14      13      14      14      13      14      14      13
      14      14      13      14      14      13      14      14      13      14
      14      13      14      14      13      14      14      13      14      14
      13      14      14      13      14      14      13      14      14      13
      14      14      13      14      14      13      14      14      13      14
      14      13      14      14      13      14      14      13      14      14
      13      14      14      13      14      14      13      14      14      13
      14      14      13      14      14      13      14      14      13      14
      14      13      14      14      13      14      14      13      14      14
      13      14      14      13      14      14      13      14      14      13
      14      14      13      14      14      13      14      14      13      14
      14      13      14      14      13      14      14      13      14      14
      13      14      14      13      14      14      13      14      14      13
      14      14      13      14      14      13      14      14      13      14
      14      13      14      14      13      14      14      13      14      14
      13      14      14      13      14      14      13      14      14      13
      14      14      13      14      14      13      14      14      13      14
      14      13      14      14      13      14      14      13      14      14
      13      14      14      13      14      14      13      14      14      13
      14      14      13      14      14      13      14      14      13      14
      14      13      14      14      13      14      14      13      14      14
      13      14      14      13      14      14      13      14      14      13
      14      14      13      14      14      13      14      14      13      14
      14      13      14      14      13      14      14      13      14      14
      13      14      14      13      14      14      13      14      14      13
      14      14      13      14      14      13      14      14      13      14
      14      13      14      14      13      14      14      13      14      14
      13      14      14      13      14      14      13      14      14      13
      14      14      13      14      14      13      14      14      13      14
      14      13      14      14      13      14      14      13      14      14
      13      14      14      13      14      14      13      14      14      13
      14      14      13      14      14      13      14      14      13      14
      14      13      14      14      13      14      14      13      14      14
      13      14      14      13      14      14      13      14      14      13
      14      14      13      14      14      13      14      14      13      14
      14      13      14      14      13      14      14      13      14      14
      13      14      14      13      14      14      13      14      14      13
      14      14      13      14      14      13      14      14      13      14
      14      13      14      14      13      14      14      13      14      14
      13      14      14      13      14      14      13      14      14      13
      14      14      13      14      14      13      14      14      13      14
      14      13      14      14      13      14      14      13      14      14
      13      14      14      13      14      14      13      14      14      13
      14      14      13      14      14      13      14      14      13      14
      14      13      14      14      13      14      14      13      14      14
      13      14      14      13      14      14      13      14      14      13
      14      14      13      14      14      13      14      14      13      14
      14      13      14      14      13      14      14      13      14      14
      13      14      14      13      14      14      13      14      14      13
      14      14      13      14      14      13      14      14      13      14
      14      13      14      14      13      14      14      13      14      14
      13      14      14      13      14      14      13      14      14      13
      14      14      13      14      14      13      14      14      13      14
      14      13      14      14      13      14      14      13      14      14
      13      14      14      13      14      14      13      14      14      13
      14      14      13      14      14      13      14      14      13      14
      14      13      14      14      13      14      14      13      14      14
      13      14      14      13      14      14      13      14      14      13
      14      14      13      14      14      13      14      14      13      14
      14      13      14      14      13      14      14      13      14      14
      13      14      14      13      14      14      13      14      14      13
      14      14      13      14      14      13      14      14      13      14
      14      13      14      14      13      14      14      13      14      14
      13      14      14      13      14      14      13      14      14      13
      14      14      13      14      14      13      14      14      13      14
      14      13      14      14      13      14      14      13      14      14
      13      14      14      13      14      14      13      14      14      13
      14      14      13      14      14      13      14      14      13      14
      14      13      14      14      13      14      14      13      14      14
      13      14      14      13      14      14      13      14      14      13
      14      14      13      14      14      13      14      14      13      14
      14      13      14      14      13      14      14      13      14      14
      13      14      14      13      14      14      13      14      14      13
      14      14      13      14      14      13      14      14      13      14
      14      13      14      14      13      14      14      13      14      14
      13      14      14      13      14      14      13      14      14      13
      14      14      13      14      14      13      14      14      13      14
      14      13      14      14      13      14      14      13      14      14
      13      14      14      13      14      14      13      14      14      13
      14      14      13      14      14      13      14      14      13      14
      14      13      14      14      13      14      14      13      14      14
      13      14      14      13      14      14      13      14      14      13
      14      14      13      14      14      13      14      14      13      14
      14      13      14      14      13      14      14      13      14      14
      13      14      14      13      14      14      13      14      14      13
      14      14      13      14      14      13      14      14      13      14
      14      13      14      14      13      14      14      13      14      14
      13      14      14      13      14      14      13      14      14      13
      14      14      13      14      14      13      14      14      13      14
      14      13      14      14      13      14      14      13      14      14
      13      14      14      13      14      14      13      14      14      13
      14      14      13      14      14      13      14      14      13      14
      14      13      14      14      13      14      14      13      14      14
      13      14      14      13      14      14      13      14      14      13
      14      14      13      14      14      13      14      14      13      14
      14      13      14      14      13      14      14      13      14      14
      13      14      14      13      14      14      13      14      14      13
      14      14      13      14      14      13      14      14      13      14
      14      13      14      14      13      14      14      13      14      14
      13      14      14      13      14      14      13      14      14      13
      14      14      13      14      14      13      14      14      13      14
      14      13      14      14      13      14      14      13      14      14
      13      14      14      13      14      14      13      14      14      13
      14      14      13      14      14      13      14      14      13      14
      14      13      14      14      13      14      14      13      14      14
      13      14      14      13      14      14      13      14      14      13
      14      14      13      14      14      13      14      14      13      14
      14      13      14      14      13      14      14      13      14      14
      13      14      14      13      14      14      13      14      14      13
      14      14      13      14      14      13      14      14      13      14
      14      13      14      14      13      14      14      13      14      14
      13      14      14      13      14      14      13      14      14      13
      14      14      13      14      14      13      14      14      13      14
      14      13      14      14      13      14      14      13      14      14
      13      14      14      13      14      14      13      14      14      13
      14      14      13      14      14      13      14      14      13      14
      14      13      14      14      13      14      14      13      14      14
      13      14      14      13      14      14      13      14      14      13
      14      14      13      14      14      13      14      14      13      14
      14      13      14      14      13      14      14      13      14      14
      13      14      14      13      14      14      13      14      14      13
      14      14      13      14      14      13      14      14      13      14
      14      13      14      14      13      14      14      13      14      14
      13      14      14      13      14      14      13      14      14      13
      14      14      13      14      14      13      14      14      13      14
      14      13      14      14      13      14      14      13      14      14
      13      14      14      13      14      14      13      14      14      13
      14      14      13      14      14      13      14      14      13      14
      14      13      14      14      13      14      14      13      14      14
      13      14      14      13      14      14      13      14      14      13
      14      14      13      14      14      13      14      14      13      14
      14      13      14      14      13      14      14      13      14      14
      13      14      14      13      14      14      13      14      14      13
      14      14      13      14      14      13      14      14      13      14
      14      13      14      14      13      14      14      13      14      14
      13      14      14      13      14      14      13      14      14      13
      14      14      13      14      14      13      14      14      13      14
      14      13      14      14      13      14      14      13      14      14
      13      14      14      13      14      14      13      14      14      13
      14      14      13      14      14      13      14      14      13      14
      14      13      14      14      13      14      14      13      14      14
      13      14      14      13      14      14      13      14      14      13
      14      14      13      14      14      13      14      14      13      14
      14      13      14      14      13      14      14      13      14      14
      13      14      14      13      14      14      13      14      14      13
      14      14      13      14      14      13      14      14      13      14
      14      13      14      14      13      14      14      13      14      14
      13      14      14      13      14      14      13      14      14      13
      14      14      13      14      14      13      14      14      13      14
      14      13      14      14      13      14      14      13      14      14
      13      14      14      13      14      14      13      14      14      13
      14      14      13      14      14      13      14      14      13      14
      14      13      14      14      13      14      14      13      14      14
      13      14      14      13      14      14      13      14      14      13
      14      14      13      14      14      13      14      14      13      14
      14      13      14      14      13      14      14      13      14      14
      13      14      14      13      14      14      13      14      14      13
      14      14      13      14      14      13      14      14      13      14
      14      13      14      14      13      14      14      13      14      14
      13      14      14      13      14      14      13      14      14      13
      14      14      13      14      14      13      14      14      13      14
      14      13      14      14      13      14      14      13      14      14
      13      14      14      13      14      14      13      14      14      13
      14      14      13      14      14      13      14      14      13      14
      14      13      14      14      13      14      14      13      14      14
      13      14      14      13      14      14      13      14      14      13
      14      14      13      14      14      13      14      14      13      14
      14      13      14      14      13      14      14      13      14      14
      13      14      14      13      14      14      13      14      14      13
      14      14      13      14      14      13      14      14      13      14
      14      13      14      14      13      14      14      13      14      14
      13      14      14      13      14      14      13      14      14      13
      14      14      13      14      14      13      14      14      13      14
      14      13      14      14      13      14      14      13      14      14
      13      14      14      13      14      14      13      14      14      13
      14      14      13      14      14      13      14      14      13      14
      14      13      14      14      13      14      14      13      14      14
      13      14      14      13      14      14      13      14      14      13
      14      14      13      14      14      13      14      14      13      14
      14      13      14      14      13      14      14      13      14      14
      13      14      14      13      14      14      13      14      14      13
      14      14      13      14      14      13      14      14      13      14
      14      13      14      14      13      14      14      13      14      14
      13      14      14      13      14      14      13      14      14      13
      14      14      13      14      14      13      14      14      13      14
      14      13      14      14      13      14      14      13      14      14
      13      14      14      13      14      14      13      14      14      13
      14      14      13      14      14      13      14      14      13      14
      14      13      14      14      13      14      14      13      14      14
      13      14      14      13      14      14      13      14      14      13
      14      14      13      14      14      13      14      14      13      14
      14      13      14      14      13      14      14      13      14      14
      13      14      14      13      14      14      13      14      14      13
      14      14      13      14      14      13      14      14      13      14
      14      13      14      14      13      14      14      13      14      14
      13      14      14      13      14      14      13      14      14      13
      14      14      13      14      14      13      14      14      13      14
      14      13      14      14      13      14      14      13      14      14
      13      14      14      13      14      14      13      14      14      13
      14      14      13      14      14      13      14      14      13      14
      14      13      14      14      13      14      14      13      14      14
      13      14      14      13      14      14      13      14      14      13
      14      14      13      14      14      13      14      14      13      14
      14      13      14      14      13      14      14      13      14      14
      13      14      14      13      14      14      13      14      14      13
      14      14      13      14      14      13      14      14      13      14
      14      13      14      14      13      14      14      13      14      14
      13      14      14      13      14      14      13      14      14      13
      14      14      13      14      14      13      14      14      13      14
      14      13      14      14      13      14      14      13      14      14
      13      14      14      13      14      14      13      14      14      13
      14      14      13      14      14      13      14      14      13      14
      14      13      14      14      13      14      14      13      14      14
      13      14      14      13      14      14      13      14      14      13
      14      14      13      14      14      13      14      14      13      14
      14      13      14      14      13      14      14      13      14      14
      13      14      14      13      14      14      13      14      14      13
      14      14      13      14      14      13      14      14      13      14
      14      13      14      14      13      14      14      13      14      14
      13      14      14      13      14      14      13      14      14      13
      14      14      13      14      14      13      14      14      13      14
      14      13      14      14      13      14      14      13      14      14
      13      14      14      13      14      14      13      14      14      13
      14      14      13      14      14      13      14      14      13      14
      14      13      14      14      13      14      14      13      14      14
      13      14      14      13      14      14      13      14      14      13
      14      14      13      14      14      13      14      14      13      14
      14      13      14      14      13      14      14      13      14      14
      13      14      14      13      14      14      13      14      14      13
      14      14      13      14      14      13      14      14      13      14
      14      13      14      14      13      14      14      13      14      14
      13      14      14      13      14      14      13      14      14      13
      14      14      13      14      14      13      14      14      13      14
      14      13      14      14      13      14      14      13      14      14
      13      14      14      13      14      14      13      14      14      13
      14      14      13      14      14      13      14      14      13      14
      14      13      14      14      13      14      14      13      14      14
      13      14      14      13      14      14      13      14      14      13
      14      14      13      14      14      13      14      14      13      14
      14      13      14      14      13      14      14      13      14      14
      13      14      14      13      14      14      13      14      14      13
      14      14      13      14      14      13      14      14      13      14
      14      13      14      14      13      14      14      13      14      14
      13      14      14      13      14      14      13      14      14      13
      14      14      13      14      14      13      14      14      13      14
      14      13      14      14      13      14      14      13      14      14
      13      14      14      13      14      14      13      14      14      13
      14      14      13      14      14      13      14      14      13      14
      14      13      14      14      13      14      14      13      14      14
      13      14      14      13      14      14      13      14      14      13
      14      14      13      14      14      13      14      14      13      14
      14      13      14      14      13      14      14      13      14      14
      13      14      14      13      14      14      13      14      14      13
      14      14      13      14      14      13      14      14      13      14
      14      13      14      14      13      14      14      13      14      14
      13      14      14      13      14      14      13      14      14      13
      14      14      13      14      14      13      14      14      13      14
      14      13      14      14      13      14      14      13      14      14
      13      14      14      13      14      14      13      14      14      13
      14      14      13      14      14      13      14      14      13      14
      14      13      14      14      13      14      14      13      14      14
      13      14      14      13      14      14      13      14      14      13
      14      14      13      14      14      13      14      14      13      14
      14      13      14      14      13      14      14      13      14      14
      13      14      14      13      14      14      13      14      14      13
      14      14      13      14      14      13      14      14      13      14
      14      13      14      14      13      14      14      13      14      14
      13      14      14      13      14      14      13      14      14      13
      14      14      13      14      14      13      14      14      13      14
      14      13      14      14      13      14      14      13      14      14
      13      14      14      13      14      14      13      14      14      13
      14      14      13      14      14      13      14      14      13      14
      14      13      14      14      13      14      14      13      14      14
      13      14      14      13      14      14      13      14      14      13
      14      14      13      14      14      13      14      14      13      14
      14      13      14      14      13      14      14      13      14      14
      13      14      14      13      14      14      13      14      14      13
      14      14      13      14      14      13      14      14      13      14
      14      13      14      14      13      14      14      13      14      14
      13      14      14      13      14      14      13      14      14      13
      14      14      13      14      14      13      14      14      13      14
      14      13      14      14      13      14      14      13      14      14
      13      14      14      13      14      14      13      14      14      13
      14      14      13      14      14      13      14      14      13      14
      14      13      14      14      13      14      14      13      14      14
      13      14      14      13      14      14      13      14      14      13
      14      14      13      14      14      13      14      14      13      14
      14      13      14      14      13      14      14      13      14      14
      13      14      14      13      14      14      13      14      14      13
      14      14      13      14      14      13      14      14      13      14
      14      13      14      14      13      14      14      13      14      14
      13      14      14      13      14      14      13      14      14      13
      14      14      13      14      14      13      14      14      13      14
      14      13      14      14      13      14      14      13      14      14
      13      14      14      13      14      14      13      14      14      13
      14      14      13      14      14      13      14      14      13      14
      14      13      14      14      13      14      14      13      14      14
      13      14      14      13      14      14      13      14      14      13
      14      14      13      14      14      13      14      14      13      14
      14      13      14      14      13      14      14      13      14      14
      13      14      14      13      14      14      13      14      14      13
      14      14      13      14      14      13      14      14      13      14
      14      13      14      14      13      14      14      13      14      14
      13      14      14      13      14      14      13      14      14      13
      14      14      13      14      14      13      14      14      13      14
      14      13      14      14      13      14      14      13      14      14
      13      14      14      13      14      14      13      14      14      13
      14      14      13      14      14      13      14      14      13      14
      14      13      14      14      13      14      14      13      14      14
      13      14      14      13      14      14      13      14      14      13
      14      14      13      14      14      13      14      14      13      14
      14      13      14      14      13      14      14      13      14      14
      13      14      14      13      14      14      13      14      14      13
      14      14      13      14      14      13      14      14      13      14
      14      13      14      14      13      14      14      13      14      14
      13      14      14      13      14      14      13      14      14      13
      14      14      13      14      14      13      14      14      13      14
      14      13      14      14      13      14      14      13      14      14
      13      14      14      13      14      14      13      14      14      13
      14      14      13      14      14      13      14      14      13      14
      14      13      14      14      13      14      14      13      14      14
      13      14      14      13      14      14      13      14      14      13
      14      14      13      14      14      13      14      14      13      14
      14      13      14      14      13      14      14      13      14      14
      13      14      14      13      14      14      13      14      14      13
      14      14      13      14      14      13      14      14      13      14
      14      13      14      14      13      14      14      13      14      14
      13      14      14      13      14      14      13      14      14      13
      14      14      13      14      14      13      14      14      13      14
      14      13      14      14      13      14      14      13      14      14
      13      14      14      13      14      14      13      14      14      13
      14      14      13      14      14      13      14      14      13      14
      14      13      14      14      13      14      14      13      14      14
      13      14      14      13      14      14      13      14      14      13
      14      14      13      14      14      13      14      14      13      14
      14      13      14      14      13      14      14      13      14      14
      13      14      14      13      14      14      13      14      14      13
      14      14      13      14      14      13      14      14      13      14
      14      13      14      14      13      14      14      13      14      14
      13      14      14      13      14      14      13      14      14      13
      14      14      13      14      14      13      14      14      13      14
      14      13      14      14      13      14      14      13      14      14
      13      14      14      13      14      14      13      14      14      13
      14      14      13      14      14      13      14      14      13      14
      14      13      14      14      13      14      14      13      14      14
      13      14      14      13      14      14      13      14      14      13
      14      14      13      14      14      13      14      14      13      14
      14      13      14      14      13      14      14      13      14      14
      13      14      14      13      14      14      13      14      14      13
      14      14      13      14      14      13      14      14      13      14
      14      13      14      14      13      14      14      13      14      14
      13      14      14      13      14      14      13      14      14      13
      14      14      13      14      14      13      14      14      13      14
      14      13      14      14      13      14      14      13      14      14
      13      14      14      13      14      14      13      14      14      13
      14      14      13      14      14      13      14      14      13      14
      14      13      14      14      13      14      14      13      14      14
      13      14      14      13      14      14      13      14      14      13
      14      14      13      14      14      13      14      14      13      14
      14      13      14      14      13      14      14      13      14      14
      13      14      14      13      14      14      13      14      14      13
      14      14      13      14      14      13      14      14      13      14
      14      13      14      14      13      14      14      13      14      14
      13      14      14      13      14      14      13      14      14      13
      14      14      13      14      14      13      14      14      13      14
      14      13      14      14      13      14      14      13      14      14
      13      14      14      13      14      14      13      14      14      13
      14      14      13      14      14      13      14      14      13      14
      14      13      14      14      13      14      14      13      14      14
      13      14      14      13      14      14      13      14      14      13
      14      14      13      14      14      13      14      14      13      14
      14      13      14      14      13      14      14      13      14      14
      13      14      14      13      14      14      13      14      14      13
      14      14      13      14      14      13      14      14      13      14
      14      13      14      14      13      14      14      13      14      14
      13      14      14      13      14      14      13      14      14      13
      14      14      13      14      14      13      14      14      13      14
      14      13      14      14      13      14      14      13      14      14
      13      14      14      13      14      14      13      14      14      13
      14      14      13      14      14      13      14      14      13      14
      14      13      14      14      13      14      14      13      14      14
      13      14      14      13      14      14      13      14      14      13
      14      14      13      14      14      13      14      14      13      14
      14      13      14      14      13      14      14      13      14      14
      13      14      14      13      14      14      13      14      14      13
      14      14      13      14      14      13      14      14      13      14
      14      13      14      14      13      14      14      13      14      14
      13      14      14      13      14      14      13      14      14      13
      14      14      13      14      14      13      14      14      13      14
      14      13      14      14      13      14      14      13      14      14
      13      14      14      13      14      14      13      14      14      13
      14      14      13      14      14      13      14      14      13      14
      14      13      14      14      13      14      14      13      14      14
      13      14      14      13      14      14      13      14      14      13
      14      14      13      14      14      13      14      14      13      14
      14      13      14      14      13      14      14      13      14      14
      13      14      14      13      14      14      13      14      14      13
      14      14      13      14      14      13      14      14      13      14
      14      13      14      14      13      14      14      13      14      14
      13      14      14      13      14      14      13      14      14      13
      14      14      13      14      14      13      14      14      13      14
      14      13      14      14      13      14      14      13      14      14
      13      14      14      13      14      14      13      14      14      13
      14      14      13      14      14      13      14      14      13      14
      14      13      14      14      13      14      14      13      14      14
      13      14      14      13      14      14      13      14      14      13
      14      14      13      14      14      13      14      14      13      14
      14      13      14      14      13      14      14      13      14      14
      13      14      14      13      14      14      13      14      14      13
      14      14      13      14      14      13      14      14      13      14
      14      13      14      14      13      14      14      13      14      14
      13      14      14      13      14      14      13      14      14      13
      14      14      13      14      14      13      14      14      13      14
      14      13      14      14      13      14      14      13      14      14
      13      14      14      13      14      14      13      14      14      13
      14      14      13      14      14      13      14      14      13      14
      14      13      14      14      13      14      14      13      14      14
      13      14      14      13      14      14      13      14      14      13
      14      14      13      14      14      13      14      14      13      14
      14      13      14      14      13      14      14      13      14      14
      13      14      14      13      14      14      13      14      14      13
      14      14      13      14      14      13      14      14      13      14
      14      13      14      14      13      14      14      13      14      14
      13      14      14      13      14      14      13      14      14      13
      14      14      13      14      14      13      14      14      13      14
      14      13      14      14      13      14      14      13      14      14
      13      14      14      13      14      14      13      14      14      13
      14      14      13      14      14      13      14      14      13      14
      14      13      14      14      13      14      14      13      14      14
      13      14      14      13      14      14      13      14      14      13
      14      14      13      14      14      13      14      14      13      14
      14      13      14      14      13      14      14      13      14      14
      13      14      14      13      14      14      13      14      14      13
      14      14      13      14      14      13      14      14      13      14
      14      13      14      14      13      14      14      13      14      14
      13      14      14      13      14      14      13      14      14      13
      14      14      13      14      14      13      14      14      13      14
      14      13      14      14      13      14      14      13      14      14
      13      14      14      13      14      14      13      14      14      13
      14      14      13      14      14      13      14      14      13      14
      14      13      14      14      13      14      14      13      14      14
      13      14      14      13      14      14      13      14      14      13
      14      14      13      14      14      13      14      14      13      14
      14      13      14      14      13      14      14      13      14      14
      13      14      14      13      14      14      13      14      14      13
      14      14      13      14      14      13      14      14      13      14
      14      13      14      14      13      14      14      13      14      14
      13      14      14      13      14      14      13      14      14      13
      14      14      13      14      14      13      14      14      13      14
      14      13      14      14      13      14      14      13      14      14
      13      14      14      13      14      14      13      14      14      13
      14      14      13      14      14      13      14      14      13      14
      14      13      14      14      13      14      14      13      14      14
      13      14      14      13      14      14      13      14      14      13
      14      14      13      14      14      13      14      14      13      14
      14      13      14      14      13      14      14      13      14      14
      13      14      14      13      14      14      13      14      14      13
      14      14      13      14      14      13      14      14      13      14
      14      13      14      14      13      14      14      13      14      14
      13      14      14      13      14      14      13      14      14      13
      14      14      13      14      14      13      14      14      13      14
      14      13      14      14      13      14      14      13      14      14
      13      14      14      13      14      14      13      14      14      13
      14      14      13      14      14      13      14      14      13      14
      14      13      14      14      13      14      14      13      14      14
      13      14      14      13      14      14      13      14      14      13
      14      14      13      14      14      13      14      14      13      14
      14      13      14      14      13      14      14      13      14      14
      13      14      14      13      14      14      13      14      14      13
      14      14      13      14      14      13      14      14      13      14
      14      13      14      14      13      14      14      13      14      14
      13      14      14      13      14      14      13      14      14      13
      14      14      13      14      14      13      14      14      13      14
      14      13      14      14      13      14      14      13      14      14
      13      14      14      13      14      14      13      14      14      13
      14      14      13      14      14      13      14      14      13      14
      14      13      14      14      13      14      14      13      14      14
      13      14      14      13      14      14      13      14      14      13
      14      14      13      14      14      13      14      14      13      14
      14      13      14      14      13      14      14      13      14      14
      13      14      14      13      14      14      13      14      14      13
      14      14      13      14      14      13      14      14      13      14
      14      13      14      14      13      14      14      13      14      14
      13      14      14      13      14      14      13      14      14      13
      14      14      13      14      14      13      14      14      13      14
      14      13      14      14      13      14      14      13      14      14
      13      14      14      13      14      14      13      14      14      13
      14      14      13      14      14      13      14      14      13      14
      14      13      14      14      13      14      14      13      14      14
      13      14      14      13      14      14      13      14      14      13
      14      14      13      14      14      13      14      14      13      14
      14      13      14      14      13      14      14      13      14      14
      13      14      14      13      14      14      13      14      14      13
      14      14      13      14      14      13      14      14      13      14
      14      13      14      14      13      14      14      13      14      14
      13      14      14      13      14      14      13      14      14      13
      14      14      13      14      14      13      14      14      13      14
      14      13      14      14      13      14      14      13      14      14
      13      14      14      13      14      14      13      14      14      13
      14      14      13      14      14      13      14      14      13      14
      14      13      14      14      13      14      14      13      14      14
      13      14      14      13      14      14      13      14      14      13
      14      14      13      14      14      13      14      14      13      14
      14      13      14      14      13      14      14      13      14      14
      13      14      14      13      14      14      13      14      14      13
      14      14      13      14      14      13      14      14      13      14
      14      13      14      14      13      14      14      13      14      14
      13      14      14      13      14      14      13      14      14      13
      14      14      13      14      14      13      14      14      13      14
      14      13      14      14      13      14      14      13      14      14
      13      14      14      13      14      14      13      14      14      13
      14      14      13      14      14      13      14      14      13      14
      14      13      14      14      13      14      14      13      14      14
      13      14      14      13      14      14      13      14      14      13
      14      14      13      14      14      13      14      14      13      14
      14      13      14      14      13      14      14      13      14      14
      13      14      14      13      14      14      13      14      14      13
      14      14      13      14      14      13      14      14      13      14
      14      13      14      14      13      14      14      13      14      14
      13      14      14      13      14      14      13      14      14      13
      14      14      13      14      14      13      14      14      13      14
      14      13      14      14      13      14      14      13      14      14
      13      14      14      13      14      14      13      14      14      13
      14      14      13      14      14      13      14      14      13      14
      14      13      14      14      13      14      14      13      14      14
      13      14      14      13      14      14      13      14      14      13
      14      14      13      14      14      13      14      14      13      14
      14      13      14      14      13      14      14      13      14      14
      13      14      14      13      14      14      13      14      14      13
      14      14      13      14      14      13      14      14      13      14
      14      13      14      14      13      14      14      13      14      14
      13      14      14      13      14      14      13      14      14      13
      14      14      13      14      14      13      14      14      13      14
      14      13      14      14      13      14      14      13      14      14
      13      14      14      13      14      14      13      14      14      13
      14      14      13      14      14      13      14      14      13      14
      14      13      14      14      13      14      14      13      14      14
      13      14      14      13      14      14      13      14      14      13
      14      14      13      14      14      13      14      14      13      14
      14      13      14      14      13      14      14      13      14      14
      13      14      14      13      14      14      13      14      14      13
      14      14      13      14      14      13      14      14      13      14
      14      13      14      14      13      14      14      13      14      14
      13      14      14      13      14      14      13      14      14      13
      14      14      13      14      14      13      14      14      13      14
      14      13      14      14      13      14      14      13      14      14
      13      14      14      13      14      14      13      14      14      13
      14      14      13      14      14      13      14      14      13      14
      14      13      14      14      13      14      14      13      14      14
      13      14      14      13      14      14      13      14      14      13
      14      14      13      14      14      13      14      14      13      14
      14      13      14      14      13      14      14      13      14      14
      13      14      14      13      14      14      13      14      14      13
      14      14      13      14      14      13      14      14      13      14
      14      13      14      14      13      14      14      13      14      14
      13      14      14      13      14      14      13      14      14      13
      14      14      13      14      14      13      14      14      13      14
      14      13      14      14      13      14      14      13      14      14
      13      14      14      13      14      14      13      14      14      13
      14      14      13      14      14      13      14      14      13      14
      14      13      14      14      13      14      14      13      14      14
      13      14      14      13      14      14      13      14      14      13
      14      14      13      14      14      13      14      14      13      14
      14      13      14      14      13      14      14      13      14      14
      13      14      14      13      14      14      13      14      14      13
      14      14      13      14      14      13      14      14      13      14
      14      13      14      14      13      14      14      13      14      14
      13      14      14      13      14      14      13      14      14      13
      14      14      13      14      14      13      14      14      13      14
      14      13      14      14      13      14      14      13      14      14
      13      14      14      13      14      14      13      14      14      13
      14      14      13      14      14      13      14      14      13      14
      14      13      14      14      13      14      14      13      14      14
      13      14      14      13      14      14      13      14      14      13
      14      14      13      14      14      13      14      14      13      14
      14      13      14      14      13      14      14      13      14      14
      13      14      14      13      14      14      13      14      14      13
      14      14      13      14      14      13      14      14      13      14
      14      13      14      14      13      14      14      13      14      14
      13      14      14      13      14      14      13      14      14      13
      14      14      13      14      14      13      14      14      13      14
      14      13      14      14      13      14      14      13      14      14
      13      14      14      13      14      14      13      14      14      13
      14      14      13      14      14      13      14      14      13      14
      14      13      14      14      13      14      14      13      14      14
      13      14      14      13      14      14      13      14      14      13
      14      14      13      14      14      13      14      14      13      14
      14      13      14      14      13      14      14      13      14      14
      13      14      14      13      14      14      13      14      14      13
      14      14      13      14      14      13      14      14      13      14
      14      13      14      14      13      14      14      13      14      14
      13      14      14      13      14      14      13      14      14      13
      14      14      13      14      14      13      14      14      13      14
      14      13      14      14      13      14      14      13      14      14
      13      14      14      13      14      14      13      14      14      13
      14      14      13      14      14      13      14      14      13      14
      14      13      14      14      13      14      14      13      14      14
      13      14      14      13      14      14      13      14      14      13
      14      14      13      14      14      13      14      14      13      14
      14      13      14      14      13      14      14      13      14      14
      13      14      14      13      14      14      13      14      14      13
      14      14      13      14      14      13      14      14      13      14
      14      13      14      14      13      14      14      13      14      14
      13      14      14      13      14      14      13      14      14      13
      14      14      13      14      14      13      14      14      13      14
      14      13      14      14      13      14      14      13      14      14
      13      14      14      13      14      14      13      14      14      13
      14      14      13      14      14      13      14      14      13      14
      14      13      14      14      13      14      14      13      14      14
      13      14      14      13      14      14      13      14      14      13
      14      14      13      14      14      13      14      14      13      14
      14      13      14      14      13      14      14      13      14      14
      13      14      14      13      14      14      13      14      14      13
      14      14      13      14      14      13      14      14      13      14
      14      13      14      14      13      14      14      13      14      14
      13      14      14      13      14      14      13      14      14      13
      14      14      13      14      14      13      14      14      13      14
      14      13      14      14      13      14      14      13      14      14
      13      14      14      13      14      14      13      14      14      13
      14      14      13      14      14      13      14      14      13      14
      14      13      14      14      13      14      14      13      14      14
      13      14      14      13      14      14      13      14      14      13
      14      14      13      14      14      13      14      14      13      14
      14      13      14      14      13      14      14      13      14      14
      13      14      14      13      14      14      13      14      14      13
      14      14      13      14      14      13      14      14      13      14
      14      13      14      14      13      14      14      13      14      14
      13      14      14      13      14      14      13      14      14      13
      14      14      13      14      14      13      14      14      13      14
      14      13      14      14      13      14      14      13      14      14
      13      14      14      13      14      14      13      14      14      13
      14      14      13      14      14      13      14      14      13      14
      14      13      14      14      13      14      14      13      14      14
      13      14      14      13      14      14      13      14      14      13
      14      14      13      14      14      13      14      14      13      14
      14      13      14      14      13      14      14      13      14      14
      13      14      14      13      14      14      13      14      14      13
      14      14      13      14      14      13      14      14      13      14
      14      13      14      14      13      14      14      13      14      14
      13      14      14      13      14      14      13      14      14      13
      14      14      13      14      14      13      14      14      13      14
      14      13      14      14      13      14      14      13      14      14
      13      14      14      13      14      14      13      14      14      13
      14      14      13      14      14      13      14      14      13      14
      14      13      14      14      13      14      14      13      14      14
      13      14      14      13      14      14      13      14      14      13
      14      14      13      14      14      13      14      14      13      14
      14      13      14      14      13      14      14      13      14      14
      13      14      14      13      14      14      13      14      14      13
      14      14      13      14      14      13      14      14      13      14
      14      13      14      14      13      14      14      13      14      14
      13      14      14      13      14      14      13      14      14      13
      14      14      13      14      14      13      14      14      13      14
      14      13      14      14      13      14      14      13      14      14
      13      14      14      13      14      14      13      14      14      13
      14      14      13      14      14      13      14      14      13      14
      14      13      14      14      13      14      14      13      14      14
      13      14      14      13      14      14      13      14      14      13
      14      14      13      14      14      13      14      14      13      14
      14      13      14      14      13      14      14      13      14      14
      13      14      14      13      14      14      13      14      14      13
      14      14      13      14      14      13      14      14      13      14
      14      13      14      14      13      14      14      13      14      14
      13      14      14      13      14      14      13      14      14      13
      14      14      13      14      14      13      14      14      13      14
      14      13      14      14      13      14      14      13      14      14
      13      14      14      13      14      14      13      14      14      13
      14      14      13      14      14      13      14      14      13      14
      14      13      14      14      13      14      14      13      14      14
      13      14      14      13      14      14      13      14      14      13
      14      14      13      14      14      13      14      14      13      14
      14      13      14      14      13      14      14      13      14      14
      13      14      14      13      14      14      13      14      14      13
      14      14      13      14      14      13      14      14      13      14
      14      13      14      14      13      14      14      13      14      14
      13      14      14      13      14      14      13      14      14      13
      14      14      13      14      14      13      14      14      13      14
      14      13      14      14      13      14      14      13      14      14
      13      14      14      13      14      14      13      14      14      13
      14      14      13      14      14      13      14      14      13      14
      14      13      14      14      13      14      14      13      14      14
      13      14      14      13      14      14      13      14      14      13
      14      14      13      14      14      13      14      14      13      14
      14      13      14      14      13      14      14      13      14      14
      13      14      14      13      14      14      13      14      14      13
      14      14      13      14      14      13      14      14      13      14
      14      13      14      14      13      14      14      13      14      14
      13      14      14      13      14      14      13      14      14      13
      14      14      13      14      14      13      14      14      13      14
      14      13      14      14      13      14      14      13      14      14
      13      14      14      13      14      14      13      14      14      13
      14      14      13      14      14      13      14      14      13      14
      14      13      14      14      13      14      14      13      14      14
      13      14      14      13      14      14      13      14      14      13
      14      14      13      14      14      13      14      14      13      14
      14      13      14      14      13      14      14      13      14      14
      13      14      14      13      14      14      13      14      14      13
      14      14      13      14      14      13      14      14      13      14
      14      13      14      14      13      14      14      13      14      14
      13      14      14      13      14      14      13      14      14      13
      14      14      13      14      14      13      14      14      13      14
      14      13      14      14      13      14      14      13      14      14
      13      14      14      13      14      14      13      14      14      13
      14      14      13      14      14      13      14      14      13      14
      14      13      14      14      13      14      14      13      14      14
      13      14      14      13      14      14      13      14      14      13
      14      14      13      14      14      13      14      14      13      14
      14      13      14      14      13      14      14      13      14      14
      13      14      14      13      14      14      13      14      14      13
      14      14      13      14      14      13      14      14      13      14
      14      13      14      14      13      14      14      13      14      14
      13      14      14      13      14      14      13      14      14      13
      14      14      13      14      14      13      14      14      13      14
      14      13      14      14      13      14      14      13      14      14
      13      14      14      13      14      14      13      14      14      13
      14      14      13      14      14      13      14      14      13      14
      14      13      14      14      13      14      14      13      14      14
      13      14      14      13      14      14      13      14      14      13
      14      14      13      14      14      13      14      14      13      14
      14      13      14      14      13      14      14      13      14      14
      13      14      14      13      14      14      13      14      14      13
      14      14      13      14      14      13      14      14      13      14
      14      13      14      14      13      14      14      13      14      14
      13      14      14      13      14      14      13      14      14      13
      14      14      13      14      14      13      14      14      13      14
      14      13      14      14      13      14      14      13      14      14
      13      14      14      13      14      14      13      14      14      13
      14      14      13      14      14      13      14      14      13      14
      14      13      14      14      13      14      14      13      14      14
      13      14      14      13      14      14      13      14      14      13
      14      14      13      14      14      13      14      14      13      14
      14      13      14      14      13      14      14      13      14      14
      13      14      14      13      14      14      13      14      14      13
      14      14      13      14      14      13      14      14      13      14
      14      13      14      14      13      14      14      13      14      14
      13      14      14      13      14      14      13      14      14      13
      14      14      13      14      14      13      14      14      13      14
      14      13      14      14      13      14      14      13      14      14
      13      14      14      13      14      14      13      14      14      13
      14      14      13      14      14      13      14      14      13      14
      14      13      14      14      13      14      14      13      14      14
      13      14      14      13      14      14      13      14      14      13
      14      14      13      14      14      13      14      14      13      14
      14      13      14      14      13      14      14      13      14      14
      13      14      14      13      14      14      13      14      14      13
      14      14      13      14      14      13      14      14      13      14
      14      13      14      14      13      14      14      13      14      14
      13      14      14      13      14      14      13      14      14      13
      14      14      13      14      14      13      14      14      13      14
      14      13      14      14      13      14      14      13      14      14
      13      14      14      13      14      14      13      14      14      13
      14      14      13      14      14      13      14      14      13      14
      14      13      14      14      13      14      14      13      14      14
      13      14      14      13      14      14      13      14      14      13
      14      14      13      14      14      13      14      14      13      14
      14      13      14      14      13      14      14      13      14      14
      13      14      14      13      14      14      13      14      14      13
      14      14      13      14      14      13      14      14      13      14
      14      13      14      14      13      14      14      13      14      14
      13      14      14      13      14      14      13      14      14      13
      14      14      13      14      14      13      14      14      13      14
      14      13      14      14      13      14      14      13      14      14
      13      14      14      13      14      14      13      14      14      13
      14      14      13      14      14      13      14      14      13      14
      14      13      14      14      13      14      14      13      14      14
      13      14      14      13      14      14      13      14      14      13
      14      14      13      14      14      13      14      14      13      14
      14      13      14      14      13      14      14      13      14      14
      13      14      14      13      14      14      13      14      14      13
      14      14      13      14      14      13      14      14      13      14
      14      13      14      14      13      14      14      13      14      14
      13      14      14      13      14      14      13      14      14      13
      14      14      13      14      14      13      14      14      13      14
      14      13      14      14      13      14      14      13      14      14
      13      14      14      13      14      14      13      14      14      13
      14      14      13      14      14      13      14      14      13      14
      14      13      14      14      13      14      14      13      14      14
      13      14      14      13      14      14      13      14      14      13
      14      14      13      14      14      13      14      14      13      14
      14      13      14      14      13      14      14      13      14      14
      13      14      14      13      14      14      13      14      14      13
      14      14      13      14      14      13      14      14      13      14
      14      13      14      14      13      14      14      13      14      14
      13      14      14      13      14      14      13      14      14      13
      14      14      13      14      14      13      14      14      13      14
      14      13      14      14      13      14      14      13      14      14
      13      14      14      13      14      14      13      14      14      13
      14      14      13      14      14      13      14      14      13      14
      14      13      14      14      13      14      14      13      14      14
      13      14      14      13      14      14      13      14      14      13
      14      14      13      14      14      13      14      14      13      14
      14      13      14      14      13      14      14      13      14      14
      13      14      14      13      14      14      13      14      14      13
      14      14      13      14      14      13      14      14      13      14
      14      13      14      14      13      14      14      13      14      14
      13      14      14      13      14      14      13      14      14      13
      14      14      13      14      14      13      14      14      13      14
      14      13      14      14      13      14      14      13      14      14
      13      14      14      13      14      14      13      14      14      13
      14      14      13      14      14      13      14      14      13      14
      14      13      14      14      13      14      14      13      14      14
      13      14      14      13      14      14      13      14      14      13
      14      14      13      14      14      13      14      14      13      14
      14      13      14      14      13      14      14      13      14      14
      13      14      14      13      14      14      13      14      14      13
      14      14      13      14      14      13      14      14      13      14
      14      13      14      14      13      14      14      13      14      14
      13      14      14      13      14      14      13      14      14      13
      14      14      13      14      14      13      14      14      13      14
      14      13      14      14      13      14      14      13      14      14
      13      14      14      13      14      14      13      14      14      13
      14      14      13      14      14      13      14      14      13      14
      14      13      14      14      13      14      14      13      14      14
      13      14      14      13      14      14      13      14      14      13
      14      14      13      14      14      13      14      14      13      14
      14      13      14      14      13      14      14      13      14      14
      13      14      14      13      14      14      13      14      14      13
      14      14      13      14      14      13      14      14      13      14
      14      13      14      14      13      14      14      13      14      14
      13      14      14      13      14      14      13      14      14      13
      14      14      13      14      14      13      14      14      13      14
      14      13      14      14      13      14      14      13      14      14
      13      14      14      13      14      14      13      14      14      13
      14      14      13      14      14      13      14      14      13      14
      14      13      14      14      13      14      14      13      14      14
      13      14      14      13      14      14      13      14      14      13
      14      14      13      14      14      13      14      14      13      14
      14      13      14      14      13      14      14      13      14      14
      13      14      14      13      14      14      13      14      14      13
      14      14      13      14      14      13      14      14      13      14
      14      13      14      14      13      14      14      13      14      14
      13      14      14      13      14      14      13      14      14      13
      14      14      13      14      14      13      14      14      13      14
      14      13      14      14      13      14      14      13      14      14
      13      14      14      13      14      14      13      14      14      13
      14      14      13      14      14      13      14      14      13      14
      14      13      14      14      13      14      14      13      14      14
      13      14      14      13      14      14      13      14      14      13
      14      14      13      14      14      13      14      14      13      14
      14      13      14      14      13      14      14      13      14      14
      13      14      14      13      14      14      13      14      14      13
      14      14      13      14      14      13      14      14      13      14
      14      13      14      14      13      14      14      13      14      14
      13      14      14      13      14      14      13      14      14      13
      14      14      13      14      14      13      14      14      13      14
      14      13      14      14      13      14      14      13      14      14
      13      14      14      13      14      14      13      14      14      13
      14      14      13      14      14      13      14      14      13      14
      14      13      14      14      13      14      14      13      14      14
      13      14      14      13      14      14      13      14      14      13
      14      14      13      14      14      13      14      14      13      14
      14      13      14      14      13      14      14      13      14      14
      13      14      14      13      14      14      13      14      14      13
      14      14      13      14      14      13      14      14      13      14
      14      13      14      14      13      14      14      13      14      14
      13      14      14      13      14      14      13      14      14      13
      14      14      13      14      14      13      14      14      13      14
      14      13      14      14      13      14      14      13      14      14
      13      14      14      13      14      14      13      14      14      13
      14      14      13      14      14      13      14      14      13      14
      14      13      14      14      13      14      14      13      14      14
      13      14      14      13      14      14      13      14      14      13
      14      14      13      14      14      13      14      14      13      14
      14      13      14      14      13      14      14      13      14      14
      13      14      14      13      14      14      13      14      14      13
      14      14      13      14      14      13      14      14      13      14
      14      13      14      14      13      14      14      13      14      14
      13      14      14      13      14      14      13      14      14      13
      14      14      13      14      14      13      14      14      13      14
      14      13      14      14      13      14      14      13      14      14
      13      14      14      13      14      14      13      14      14      13
      14      14      13      14      14      13      14      14      13      14
      14      13      14      14      13      14      14      13      14      14
      13      14      14      13      14      14      13      14      14      13
      14      14      13      14      14      13      14      14      13      14
      14      13      14      14      13      14      14      13      14      14
      13      14      14      13      14      14      13      14      14      13
      14      14      13      14      14      13      14      14      13      14
      14      13      14      14      13      14      14      13      14      14
      13      14      14      13      14      14      13      14      14      13
      14      14      13      14      14      13      14      14      13      14
      14      13      14      14      13      14      14      13      14      14
      13      14      14      13      14      14      13      14      14      13
      14      14      13      14      14      13      14      14      13      14
      14      13      14      14      13      14      14      13      14      14
      13      14      14      13      14      14      13      14      14      13
      14      14      13      14      14      13      14      14      13      14
      14      13      14      14      13      14      14      13      14      14
      13      14      14      13      14      14      13      14      14      13
      14      14      13      14      14      13      14      14      13      14
      14      13      14      14      13      14      14      13      14      14
      13      14      14      13      14      14      13      14      14      13
      14      14      13      14      14      13      14      14      13      14
      14      13      14      14      13      14      14      13      14      14
      13      14      14      13      14      14      13      14      14      13
      14      14      13      14      14      13      14      14      13      14
      14      13      14      14      13      14      14      13      14      14
      13      14      14      13      14      14      13      14      14      13
      14      14      13      14      14      13      14      14      13      14
      14      13      14      14      13      14      14      13      14      14
      13      14      14      13      14      14      13      14      14      13
      14      14      13      14      14      13      14      14      13      14
      14      13      14      14      13      14      14      13      14      14
      13      14      14      13      14      14      13      14      14      13
      14      14      13      14      14      13      14      14      13      14
      14      13      14      14      13      14      14      13      14      14
      13      14      14      13      14      14      13      14      14      13
      14      14      13      14      14      13      14      14      13      14
      14      13      14      14      13      14      14      13      14      14
      13      14      14      13      14      14      13      14      14      13
      14      14      13      14      14      13      14      14      13      14
      14      13      14      14      13      14      14      13      14      14
      13      14      14      13      14      14      13      14      14      13
      14      14      13      14      14      13      14      14      13      14
      14      13      14      14      13      14      14      13      14      14
      13      14      14      13      14      14      13      14      14      13
      14      14      13      14      14      13      14      14      13      14
      14      13      14      14      13      14      14      13      14      14
      13      14      14      13      14      14      13      14      14      13
      14      14      13      14      14      13      14      14      13      14
      14      13      14      14      13      14      14      13      14      14
      13      14      14      13      14      14      13      14      14      13
      14      14      13      14      14      13      14      14      13      14
      14      13      14      14      13      14      14      13      14      14
      13      14      14      13      14      14      13      14      14      13
      14      14      13      14      14      13      14      14      13      14
      14      13      14      14      13      14      14      13      14      14
      13      14      14      13      14      14      13      14      14      13
      14      14      13      14      14      13      14      14      13      14
      14      13      14      14      13      14      14      13      14      14
      13      14      14      13      14      14      13      14      14      13
      14      14      13      14      14      13      14      14      13      14
      14      13      14      14      13      14      14      13      14      14
      13      14      14      13      14      14      13      14      14      13
      14      14      13      14      14      13      14      14      13      14
      14      13      14      14      13      14      14      13      14      14
      13      14      14      13      14      14      13      14      14      13
      14      14      13      14      14      13      14      14      13      14
      14      13      14      14      13      14      14      13      14      14
      13      14      14      13      14      14      13      14      14      13
      14      14      13      14      14      13      14      14      13      14
      14      13      14      14      13      14      14      13      14      14
      13      14      14      13      14      14      13      14      14      13
      14      14      13      14      14      13      14      14      13      14
      14      13      14      14      13      14      14      13      14      14
      13      14      14      13      14      14      13      14      14      13
      14      14      13      14      14      13      14      14      13      14
      14      13      14      14      13      14      14      13      14      14
      13      14      14      13      14      14      13      14      14      13
      14      14      13      14      14      13      14      14      13      14
      14      13      14      14      13      14      14      13      14      14
      13      14      14      13      14      14      13      14      14      13
      14      14      13      14      14      13      14      14      13      14
      14      13      14      14      13      14      14      13      14      14
      13      14      14      13      14      14      13      14      14      13
      14      14      13      14      14      13      14      14      13      14
      14      13      14      14      13      14      14      13      14      14
      13      14      14      13      14      14      13      14      14      13
      14      14      13      14      14      13      14      14      13      14
      14      13      14      14      13      14      14      13      14      14
      13      14      14      13      14      14      13      14      14      13
      14      14      13      14      14      13      14      14      13      14
      14      13      14      14      13      14      14      13      14      14
      13      14      14      13      14      14      13      14      14      13
      14      14      13      14      14      13      14      14      13      14
      14      13      14      14      13      14      14      13      14      14
      13      14      14      13      14      14      13      14      14      13
      14      14      13      14      14      13      14      14      13      14
      14      13      14      14      13      14      14      13      14      14
      13      14      14      13      14      14      13      14      14      13
      14      14      13      14      14      13      14      14      13      14
      14      13      14      14      13      14      14      13      14      14
      13      14      14      13      14      14      13      14      14      13
      14      14      13      14      14      13      14      14      13      14
      14      13      14      14      13      14      14      13      14      14
      13      14      14      13      14      14      13      14      14      13
      14      14      13      14      14      13      14      14      13      14
      14      13      14      14      13      14      14      13      14      14
      13      14      14      13      14      14      13      14      14      13
      14      14      13      14      14      13      14      14      13      14
      14      13      14      14      13      14      14      13      14      14
      13      14      14      13      14      14      13      14      14      13
      14      14      13      14      14      13      14      14      13      14
      14      13      14      14      13      14      14      13      14      14
      13      14      14      13      14      14      13      14      14      13
      14      14      13      14      14      13      14      14      13      14
      14      13      14      14      13      14      14      13      14      14
      13      14      14      13      14      14      13      14      14      13
      14      14      13      14      14      13      14      14      13      14
      14      13      14      14      13      14      14      13      14      14
      13      14      14      13      14      14      13      14      14      13
      14      14      13      14      14      13      14      14      13      14
      14      13      14      14      13      14      14      13      14      14
      13      14      14      13      14      14      13      14      14      13
      14      14      13      14      14      13      14      14      13      14
      14      13      14      14      13      14      14      13      14      14
      13      14      14      13      14      14      13      14      14      13
      14      14      13      14      14      13      14      14      13      14
      14      13      14      14      13      14      14      13      14      14
      13      14      14      13      14      14      13      14      14      13
      14      14      13      14      14      13      14      14      13      14
      14      13      14      14      13      14      14      13      14      14
      13      14      14      13      14      14      13      14      14      13
      14      14      13      14      14      13      14      14      13      14
      14      13      14      14      13      14      14      13      14      14
      13      14      14      13      14      14      13      14      14      13
      14      14      13      14      14      13      14      14      13      14
      14      13      14      14      13      14      14      13      14      14
      13      14      14      13      14      14      13      14      14      13
      14      14      13      14      14      13      14      14      13      14
      14      13      14      14      13      14      14      13      14      14
      13      14      14      13      14      14      13      14      14      13
      14      14      13      14      14      13      14      14      13      14
      14      13      14      14      13      14      14      13      14      14
      13      14      14      13      14      14      13      14      14      13
      14      14      13      14      14      13      14      14      13      14
      14      13      14      14      13      14      14      13      14      14
      13      14      14      13      14      14      13      14      14      13
      14      14      13      14      14      13      14      14      13      14
      14      13      14      14      13      14      14      13      14      14
      13      14      14      13      14      14      13      14      14      13
      14      14      13      14      14      13      14      14      13      14
      14      13      14      14      13      14      14      13      14      14
      13      14      14      13      14      14      13      14      14      13
      14      14      13      14      14      13      14      14      13      14
      14      13      14      14      13      14      14      13      14      14
      13      14      14      13      14      14      13      14      14      13
      14      14      13      14      14      13      14      14      13      14
      14      13      14      14      13      14      14      13      14      14
      13      14      14      13      14      14      13      14      14      13
      14      14      13      14      14      13      14      14      13      14
      14      13      14      14      13      14      14      13      14      14
      13      14      14      13      14      14      13      14      14      13
      14      14      13      14      14      13      14      14      13      14
      14      13      14      14      13      14      14      13      14      14
      13      14      14      13      14      14      13      14      14      13
      14      14      13      14      14      13      14      14      13      14
      14      13      14      14      13      14      14      13      14      14
      13      14      14      13      14      14      13      14      14      13
      14      14      13      14      14      13      14      14      13      14
      14      13      14      14      13      14      14      13      14      14
      13      14      14      13      14      14      13      14      14      13
      14      14      13      14      14      13      14      14      13      14
      14      13      14      14      13      14      14      13      14      14
      13      14      14      13      14      14      13      14      14      13
      14      14      13      14      14      13      14      14      13      14
      14      13      14      14      13      14      14      13      14      14
      13      14      14      13      14      14      13      14      14      13
      14      14      13      14      14      13      14      14      13      14
      14      13      14      14      13      14      14      13      14      14
      13      14      14      13      14      14      13      14      14      13
      14      14      13      14      14      13      14      14      13      14
      14      13      14      14      13      14      14      13      14      14
      13      14      14      13      14      14      13      14      14      13
      14      14      13      14      14      13      14      14      13      14
      14      13      14      14      13      14      14      13      14      14
      13      14      14      13      14      14      13      14      14      13
      14      14      13      14      14      13      14      14      13      14
      14      13      14      14      13      14      14      13      14      14
      13      14      14      13      14      14      13      14      14      13
      14      14      13      14      14      13      14      14      13      14
      14      13      14      14      13      14      14      13      14      14
      13      14      14      13      14      14      13      14      14      13
      14      14      13      14      14      13      14      14      13      14
      14      13      14      14      13      14      14      13      14      14
      13      14      14      13      14      14      13      14      14      13
      14      14      13      14      14      13      14      14      13      14
      14      13      14      14      13      14      14      13      14      14
      13      14      14      13      14      14      13      14      14      13
      14      14      13      14      14      13      14      14      13      14
      14      13      14      14      13      14      14      13      14      14
      13      14      14      13      14      14      13      14      14      13
      14      14      13      14      14      13      14      14      13      14
      14      13      14      14      13      14      14      13      14      14
      13      14      14      13      14      14      13      14      14      13
      14      14      13      14      14      13      14      14      13      14
      14      13      14      14      13      14      14      13      14      14
      13      14      14      13      14      14      13      14      14      13
      14      14      13      14      14      13      14      14      13      14
      14      13      14      14      13      14      14      13      14      14
      13      14      14      13      14      14      13      14      14      13
      14      14      13      14      14      13      14      14      13      14
      14      13      14      14      13      14      14      13      14      14
      13      14      14      13      14      14      13      14      14      13
      14      14      13      14      14      13      14      14      13      14
      14      13      14      14      13      14      14      13      14      14
      13      14      14      13      14      14      13      14      14      13
      14      14      13      14      14      13      14      14      13      14
      14      13      14      14      13      14      14      13      14      14
      13      14      14      13      14      14      13      14      14      13
      14      14      13      14      14      13      14      14      13      14
      14      13      14      14      13      14      14      13      14      14
      13      14      14      13      14      14      13      14      14      13
      14      14      13      14      14      13      14      14      13      14
      14      13      14      14      13      14      14      13      14      14
      13      14      14      13      14      14      13      14      14      13
      14      14      13      14      14      13      14      14      13      14
      14      13      14      14      13      14      14      13      14      14
      13      14      14      13      14      14      13      14      14      13
      14      14      13      14      14      13      14      14      13      14
      14      13      14      14      13      14      14      13      14      14
      13      14      14      13      14      14      13      14      14      13
      14      14      13      14      14      13      14      14      13      14
      14      13      14      14      13      14      14      13      14      14
      13      14      14      13      14      14      13      14      14      13
      14      14      13      14      14      13      14      14      13      14
      14      13      14      14      13      14      14      13      14      14
      13      14      14      13      14      14      13      14      14      13
      14      14      13      14      14      13      14      14      13      14
      14      13      14      14      13      14      14      13      14      14
      13      14      14      13      14      14      13      14      14      13
      14      14      13      14      14      13      14      14      13      14
      14      13      14      14      13      14      14      13      14      14
      13      14      14      13      14      14      13      14      14      13
      14      14      13      14      14      13      14      14      13      14
      14      13      14      14      13      14      14      13      14      14
      13      14      14      13      14      14      13      14      14      13
      14      14      13      14      14      13      14      14      13      14
      14      13      14      14      13      14      14      13      14      14
      13      14      14      13      14      14      13      14      14      13
      14      14      13      14      14      13      14      14      13      14
      14      13      14      14      13      14      14      13      14      14
      13      14      14      13      14      14      13      14      14      13
      14      14      13      14      14      13      14      14      13      14
      14      13      14      14      13      14      14      13      14      14
      13      14      14      13      14      14      13      14      14      13
      14      14      13      14      14      13      14      14      13      14
      14      13      14      14      13      14      14      13      14      14
      13      14      14      13      14      14      13      14      14      13
      14      14      13      14      14      13      14      14      13      14
      14      13      14      14      13      14      14      13      14      14
      13      14      14      13      14      14      13      14      14      13
      14      14      13      14      14      13      14      14      13      14
      14      13      14      14      13      14      14      13      14      14
      13      14      14      13      14      14      13      14      14      13
      14      14      13      14      14      13      14      14      13      14
      14      13      14      14      13      14      14      13      14      14
      13      14      14      13      14      14      13      14      14      13
      14      14      13      14      14      13      14      14      13      14
      14      13      14      14      13      14      14      13      14      14
      13      14      14      13      14      14      13      14      14      13
      14      14      13      14      14      13      14      14      13      14
      14      13      14      14      13      14      14      13      14      14
      13      14      14      13      14      14      13      14      14      13
      14      14      13      14      14      13      14      14      13      14
      14      13      14      14      13      14      14      13      14      14
      13      14      14      13      14      14      13      14      14      13
      14      14      13      14      14      13      14      14      13      14
      14      13      14      14      13      14      14      13      14      14
      13      14      14      13      14      14      13      14      14      13
      14      14      13      14      14      13      14      14      13      14
      14      13      14      14      13      14      14      13      14      14
      13      14      14      13      14      14      13      14      14      13
      14      14      13      14      14      13      14      14      13      14
      14      13      14      14      13      14      14      13      14      14
      13      14      14      13      14      14      13      14      14      13
      14      14      13      14      14      13      14      14      13      14
      14      13      14      14      13      14      14      13      14      14
      13      14      14      13      14      14      13      14      14      13
      14      14      13      14      14      13      14      14      13      14
      14      13      14      14      13      14      14      13      14      14
      13      14      14      13      14      14      13      14      14      13
      14      14      13      14      14      13      14      14      13      14
      14      13      14      14      13      14      14      13      14      14
      13      14      14      13      14      14      13      14      14      13
      14      14      13      14      14      13      14      14      13      14
      14      13      14      14      13      14      14      13      14      14
      13      14      14      13      14      14      13      14      14      13
      14      14      13      14      14      13      14      14      13      14
      14      13      14      14      13      14      14      13      14      14
      13      14      14      13      14      14      13      14      14      13
      14      14      13      14      14      13      14      14      13      14
      14      13      14      14      13      14      14      13      14      14
      13      14      14      13      14      14      13      14      14      13
      14      14      13      14      14      13      14      14      13      14
      14      13      14      14      13      14      14      13      14      14
      13      14      14      13      14      14      13      14      14      13
      14      14      13      14      14      13      14      14      13      14
      14      13      14      14      13      14      14      13      14      14
      13      14      14      13      14      14      13      14      14      13
      14      14      13      14      14      13      14      14      13      14
      14      13      14      14      13      14      14      13      14      14
      13      14      14      13      14      14      13      14      14      13
      14      14      13      14      14      13      14      14      13      14
      14      13      14      14      13      14      14      13      14      14
      13      14      14      13      14      14      13      14      14      13
      14      14      13      14      14      13      14      14      13      14
      14      13      14      14      13      14      14      13      14      14
      13      14      14      13      14      14      13      14      14      13
      14      14      13      14      14      13      14      14      13      14
      14      13      14      14      13      14      14      13      14      14
      13      14      14      13      14      14      13      14      14      13
      14      14      13      14      14      13      14      14      13      14
      14      13      14      14      13      14      14      13      14      14
      13      14      14      13      14      14      13      14      14      13
      14      14      13      14      14      13      14      14      13      14
      14      13      14      14      13      14      14      13      14      14
      13      14      14      13      14      14      13      14      14      13
      14      14      13      14      14      13      14      14      13      14
      14      13      14      14      13      14      14      13      14      14
      13      14      14      13      14      14      13      14      14      13
      14      14      13      14      14      13      14      14      13      14
      14      13      14      14      13      14      14      13      14      14
      13      14      14      13      14      14      13      14      14      13
      14      14      13      14      14      13      14      14      13      14
      14      13      14      14      13      14      14      13      14      14
      13      14      14      13      14      14      13      14      14      13
      14      14      13      14      14      13      14      14      13      14
      14      13      14      14      13      14      14      13      14      14
      13      14      14      13      14      14      13      14      14      13
      14      14      13      14      14      13      14      14      13      14
      14      13      14      14      13      14      14      13      14      14
      13      14      14      13      14      14      13      14      14      13
      14      14      13      14      14      13      14      14      13      14
      14      13      14      14      13      14      14      13      14      14
      13      14      14      13      14      14      13      14      14      13
      14      14      13      14      14      13      14      14      13      14
      14      13      14      14      13      14      14      13      14      14
      13      14      14      13      14      14      13      14      14      13
      14      14      13      14      14      13      14      14      13      14
      14      13      14      14      13      14      14      13      14      14
      13      14      14      13      14      14      13      14      14      13
      14      14      13      14      14      13      14      14      13      14
      14      13      14      14      13      14      14      13      14      14
      13      14      14      13      14      14      13      14      14      13
      14      14      13      14      14      13      14      14      13      14
      14      13      14      14      13      14      14      13      14      14
      13      14      14      13      14      14      13      14      14      13
      14      14      13      14      14      13      14      14      13      14
      14      13      14      14      13      14      14      13      14      14
      13      14      14      13      14      14      13      14      14      13
      14      14      13      14      14      13      14      14      13      14
      14      13      14      14      13      14      14      13      14      14
      13      14      14      13      14      14      13      14      14      13
      14      14      13      14      14      13      14      14      13      14
      14      13      14      14      13      14      14      13      14      14
      13      14      14      13      14      14      13      14      14      13
      14      14      13      14      14      13      14      14      13      14
      14      13      14      14      13      14      14      13      14      14
      13      14      14      13      14      14      13      14      14      13
      14      14      13      14      14      13      14      14      13      14
      14      13      14      14      13      14      14      13      14      14
      13      14      14      13      14      14      13      14      14      13
      14      14      13      14      14      13      14      14      13      14
      14      13      14      14      13      14      14      13      14      14
      13      14      14      13      14      14      13      14      14      13
      14      14      13      14      14      13      14      14      13      14
      14      13      14      14      13      14      14      13      14      14
      13      14      14      13      14      14      13      14      14      13
      14      14      13      14      14      13      14      14      13      14
      14      13      14      14      13      14      14      13      14      14
      13      14      14      13      14      14      13      14      14      13
      14      14      13      14      14      13      14      14      13      14
      14      13      14      14      13      14      14      13      14      14
      13      14      14      13      14      14      13      14      14      13
      14      14      13      14      14      13      14      14      13      14
      14      13      14      14      13      14      14      13      14      14
      13      14      14      13      14      14      13      14      14      13
      14      14      13      14      14      13      14      14      13      14
      14      13      14      14      13      14      14      13      14      14
      13      14      14      13      14      14      13      14      14      13
      14      14      13      14      14      13      14      14      13      14
      14      13      14      14      13      14      14      13      14      14
      13      14      14      13      14      14      13      14      14      13
      14      14      13      14      14      13      14      14      13      14
      14      13      14      14      13      14      14      13      14      14
      13      14      14      13      14      14      13      14      14      13
      14      14      13      14      14      13      14      14      13      14
      14      13      14      14      13      14      14      13      14      14
      13      14      14      13      14      14      13      14      14      13
      14      14      13      14      14      13      14      14      13      14
      14      13      14      14      13      14      14      13      14      14
      13      14      14      13      14      14      13      14      14      13
      14      14      13      14      14      13      14      14      13      14
      14      13      14      14      13      14      14      13      14      14
      13      14      14      13      14      14      13      14      14      13
      14      14      13      14      14      13      14      14      13      14
      14      13      14      14      13      14      14      13      14      14
      13      14      14      13      14      14      13      14      14      13
      14      14      13      14      14      13      14      14      13      14
      14      13      14      14      13      14      14      13      14      14
      13      14      14      13      14      14      13      14      14      13
      14      14      13      14      14      13      14      14      13      14
      14      13      14      14      13      14      14      13      14      14
      13      14      14      13      14      14      13      14      14      13
      14      14      13      14      14      13      14      14      13      14
      14      13      14      14      13      14      14      13      14      14
      13      14      14      13      14      14      13      14      14      13
      14      14      13      14      14      13      14      14      13      14
      14      13      14      14      13      14      14      13      14      14
      13      14      14      13      14      14      13      14      14      13
      14      14      13      14      14      13      14      14      13      14
      14      13      14      14      13      14      14      13      14      14
      13      14      14      13      14      14      13      14      14      13
      14      14      13      14      14      13      14      14      13      14
      14      13      14      14      13      14      14      13      14      14
      13      14      14      13      14      14      13      14      14      13
      14      14      13      14      14      13      14      14      13      14
      14      13      14      14      13      14      14      13      14      14
      13      14      14      13      14      14      13      14      14      13
      14      14      13      14      14      13      14      14      13      14
      14      13      14      14      13      14      14      13      14      14
      13      14      14      13      14      14      13      14      14      13
      14      14      13      14      14      13      14      14      13      14
      14      13      14      14      13      14      14      13      14      14
      13      14      14      13      14      14      13      14      14      13
      14      14      13      14      14      13      14      14      13      14
      14      13      14      14      13      14      14      13      14      14
      13      14      14      13      14      14      13      14      14      13
      14      14      13      14      14      13      14      14      13      14
      14      13      14      14      13      14      14      13      14      14
      13      14      14      13      14      14      13      14      14      13
      14      14      13      14      14      13      14      14      13      14
      14      13      14      14      13      14      14      13      14      14
      13      14      14      13      14      14      13      14      14      13
      14      14      13      14      14      13      14      14      13      14
      14      13      14      14      13      14      14      13      14      14
      13      14      14      13      14      14      13      14      14      13
      14      14      13      14      14      13      14      14      13      14
      14      13      14      14      13      14      14      13      14      14
      13      14      14      13      14      14      13      14      14      13
      14      14      13      14      14      13      14      14      13      14
      14      13      14      14      13      14      14      13      14      14
      13      14      14      13      14      14      13      14      14      13
      14      14      13      14      14      13      14      14      13      14
      14      13      14      14      13      14      14      13      14      14
      13      14      14      13      14      14      13      14      14      13
      14      14      13      14      14      13      14      14      13      14
      14      13      14      14      13      14      14      13      14      14
      13      14      14      13      14      14      13      14      14      13
      14      14      13      14      14      13      14      14      13      14
      14      13      14      14      13      14      14      13      14      14
      13      14      14      13      14      14      13      14      14      13
      14      14      13      14      14      13      14      14      13      14
      14      13      14      14      13      14      14      13      14      14
      13      14      14      13      14      14      13      14      14      13
      14      14      13      14      14      13      14      14      13      14
      14      13      14      14      13      14      14      13      14      14
      13      14      14      13      14      14      13      14      14      13
      14      14      13      14      14      13      14      14      13      14
      14      13      14      14      13      14      14      13      14      14
      13      14      14      13      14      14      13      14      14      13
      14      14      13      14      14      13      14      14      13      14
      14      13      14      14      13      14      14      13      14      14
      13      14      14      13      14      14      13      14      14      13
      14      14      13      14      14      13      14      14      13      14
      14      13      14      14      13      14      14      13      14      14
      13      14      14      13      14      14      13      14      14      13
      14      14      13      14      14      13      14      14      13      14
      14      13      14      14      13      14      14      13      14      14
      13      14      14      13      14      14      13      14      14      13
      14      14      13      14      14      13      14      14      13      14
      14      13      14      14      13      14      14      13      14      14
      13      14      14      13      14      14      13      14      14      13
      14      14      13      14      14      13      14      14      13      14
      14      13      14      14      13      14      14      13      14      14
      13      14      14      13      14      14      13      14      14      13
      14      14      13      14      14      13      14      14      13      14
      14      13      14      14      13      14      14      13      14      14
      13      14      14      13      14      14      13      14      14      13
      14      14      13      14      14      13      14      14      13      14
      14      13      14      14      13      14      14      13      14      14
      13      14      14      13      14      14      13      14      14      13
      14      14      13      14      14      13      14      14      13      14
      14      13      14      14      13      14      14      13      14      14
      13      14      14      13      14      14      13      14      14      13
      14      14      13      14      14      13      14      14      13      14
      14      13      14      14      13      14      14      13      14      14
      13      14      14      13      14      14      13      14      14      13
      14      14      13      14      14      13      14      14      13      14
      14      13      14      14      13      14      14      13      14      14
      13      14      14      13      14      14      13      14      14      13
      14      14      13      14      14      13      14      14      13      14
      14      13      14      14      13      14      14      13      14      14
      13      14      14      13      14      14      13      14      14      13
      14      14      13      14      14      13      14      14      13      14
      14      13      14      14      13      14      14      13      14      14
      13      14      14      13      14      14      13      14      14      13
      14      14      13      14      14      13      14      14      13      14
      14      13      14      14      13      14      14      13      14      14
      13      14      14      13      14      14      13      14      14      13
      14      14      13      14      14      13      14      14      13      14
      14      13      14      14      13      14      14      13      14      14
      13      14      14      13      14      14      13      14      14      13
      14      14      13      14      14      13      14      14      13      14
      14      13      14      14      13      14      14      13      14      14
      13      14      14      13      14      14      13      14      14      13
      14      14      13      14      14      13      14      14      13      14
      14      13      14      14      13      14      14      13      14      14
      13      14      14      13      14      14      13      14      14      13
      14      14      13      14      14      13      14      14      13      14
      14      13      14      14      13      14      14      13      14      14
      13      14      14      13      14      14      13      14      14      13
      14      14      13      14      14      13      14      14      13      14
      14      13      14      14      13      14      14      13      14      14
      13      14      14      13      14      14      13      14      14      13
      14      14      13      14      14      13      14      14      13      14
      14      13      14      14      13      14      14      13      14      14
      13      14      14      13      14      14      13      14      14      13
      14      14      13      14      14      13      14      14      13      14
      14      13      14      14      13      14      14      13      14      14
      13      14      14      13      14      14      13      14      14      13
      14      14      13      14      14      13      14      14      13      14
      14      13      14      14      13      14      14      13      14      14
      13      14      14      13      14      14      13      14      14      13
      14      14      13      14      14      13      14      14      13      14
      14      13      14      14      13      14      14      13      14      14
      13      14      14      13      14      14      13      14      14      13
      14      14      13      14      14      13      14      14      13      14
      14      13      14      14      13      14      14      13      14      14
      13      14      14      13      14      14      13      14      14      13
      14      14      13      14      14      13      14      14      13      14
      14      13      14      14      13      14      14      13      14      14
      13      14      14      13      14      14      13      14      14      13
      14      14      13      14      14      13      14      14      13      14
      14      13      14      14      13      14      14      13      14      14
      13      14      14      13      14      14      13      14      14      13
      14      14      13      14      14      13      14      14      13      14
      14      13      14      14      13      14      14      13      14      14
      13      14      14      13      14      14      13      14      14      13
      14      14      13      14      14      13      14      14      13      14
      14      13      14      14      13      14      14      13      14      14
      13      14      14      13      14      14      13      14      14      13
      14      14      13      14      14      13      14      14      13      14
      14      13      14      14      13      14      14      13      14      14
      13      14      14      13      14      14      13      14      14      13
      14      14      13      14      14      13      14      14      13      14
      14      13      14      14      13      14      14      13      14      14
      13      14      14      13      14      14      13      14      14      13
      14      14      13      14      14      13      14      14      13      14
      14      13      14      14      13      14      14      13      14      14
      13      14      14      13      14      14      13      14      14      13
      14      14      13      14      14      13      14      14      13      14
      14      13      14      14      13      14      14      13      14      14
      13      14      14      13      14      14      13      14      14      13
      14      14      13      14      14      13      14      14      13      14
      14      13      14      14      13      14      14      13      14      14
      13      14      14      13      14      14      13      14      14      13
      14      14      13      14      14      13      14      14      13      14
      14      13      14      14      13      14      14      13      14      14
      13      14      14      13      14      14      13      14      14      13
      14      14      13      14      14      13      14      14      13      14
      14      13      14      14      13      14      14      13      14      14
      13      14      14      13      14      14      13      14      14      13
      14      14      13      14      14      13      14      14      13      14
      14      13      14      14      13      14      14      13      14      14
      13      14      14      13      14      14      13      14      14      13
      14      14      13      14      14      13      14      14      13      14
      14      13      14      14      13      14      14      13      14      14
      13      14      14      13      14      14      13      14      14      13
      14      14      13      14      14      13      14      14      13      14
      14      13      14      14      13      14      14      13      14      14
      13      14      14      13      14      14      13      14      14      13
      14      14      13      14      14      13      14      14      13      14
      14      13      14      14      13      14      14      13      14      14
      13      14      14      13      14      14      13      14      14      13
      14      14      13      14      14      13      14      14      13      14
      14      13      14      14      13      14      14      13      14      14
      13      14      14      13      14      14      13      14      14      13
      14      14      13      14      14      13      14      14      13      14
      14      13      14      14      13      14      14      13      14      14
      13      14      14      13      14      14      13      14      14      13
      14      14      13      14      14      13      14      14      13      14
      14      13      14      14      13      14      14      13      14      14
      13      14      14      13      14      14      13      14      14      13
      14      14      13      14      14      13      14      14      13      14
      14      13      14      14      13      14      14      13      14      14
      13      14      14      13      14      14      13      14      14      13
      14      14      13      14      14      13      14      14      13      14
      14      13      14      14      13      14      14      13      14      14
      13      14      14      13      14      14      13      14      14      13
      14      14      13      14      14      13      14      14      13      14
      14      13      14      14      13      14      14      13      14      14
      13      14      14      13      14      14      13      14      14      13
      14      14      13      14      14      13      14      14      13      14
      14      13      14      14      13      14      14      13      14      14
      13      14      14      13      14      14      13      14      14      13
      14      14      13      14      14      13      14      14      13      14
      14      13      14      14      13      14      14      13      14      14
      13      14      14      13      14      14      13      14      14      13
      14      14      13      14      14      13      14      14      13      14
      14      13      14      14      13      14      14      13      14      14
      13      14      14      13      14      14      13      14      14      13
      14      14      13      14      14      13      14      14      13      14
      14      13      14      14      13      14      14      13      14      14
      13      14      14      13      14      14      13      14      14      13
      14      14      13      14      14      13      14      14      13      14
      14      13      14      14      13      14      14      13      14      14
      13      14      14      13      14      14      13      14      14      13
      14      14      13      14      14      13      14      14      13      14
      14      13      14      14      13      14      14      13      14      14
      13      14      14      13      14      14      13      14      14      13
      14      14      13      14      14      13      14      14      13      14
      14      13      14      14      13      14      14      13      14      14
      13      14      14      13      14      14      13      14      14      13
      14      14      13      14      14      13      14      14      13      14
      14      13      14      14      13      14      14      13      14      14
      13      14      14      13      14      14      13      14      14      13
      14      14      13      14      14      13      14      14      13      14
      14      13      14      14      13      14      14      13      14      14
      13      14      14      13      14      14      13      14      14      13
      14      14      13      14      14      13      14      14      13      14
      14      13      14      14      13      14      14      13      14      14
      13      14      14      13      14      14      13      14      14      13
      14      14      13      14      14      13      14      14      13      14
      14      13      14      14      13      14      14      13      14      14
      13      14      14      13      14      14      13      14      14      13
      14      14      13      14      14      13      14      14      13      14
      14      13      14      14      13      14      14      13      14      14
      13      14      14      13      14      14      13      14      14      13
      14      14      13      14      14      13      14      14      13      14
      14      13      14      14      13      14      14      13      14      14
      13      14      14      13      14      14      13      14      14      13
      14      14      13      14      14      13      14      14      13      14
      14      13      14      14      13      14      14      13      14      14
      13      14      14      13      14      14      13      14      14      13
      14      14      13      14      14      13      14      14      13      14
      14      13      14      14      13      14      14      13      14      14
      13      14      14      13      14      14      13      14      14      13
      14      14      13      14      14      13      14      14      13      14
      14      13      14      14      13      14      14      13      14      14
      13      14      14      13      14      14      13      14      14      13
      14      14      13      14      14      13      14      14      13      14
      14      13      14      14      13      14      14      13      14      14
      13      14      14      13      14      14      13      14      14      13
      14      14      13      14      14      13      14      14      13      14
      14      13      14      14      13      14      14      13      14      14
      13      14      14      13      14      14      13      14      14      13
      14      14      13      14      14      13      14      14      13      14
      14      13      14      14      13      14      14      13      14      14
      13      14      14      13      14      14      13      14      14      13
      14      14      13      14      14      13      14      14      13      14
      14      13      14      14      13      14      14      13      14      14
      13      14      14      13      14      14      13      14      14      13
      14      14      13      14      14      13      14      14      13      14
      14      13      14      14      13      14      14      13      14      14
      13      14      14      13      14      14      13      14      14      13
      14      14      13      14      14      13      14      14      13      14
      14      13      14      14      13      14      14      13      14      14
      13      14      14      13      14      14      13      14      14      13
      14      14      13      14      14      13      14      14      13      14
      14      13      14      14      13      14      14      13      14      14
      13      14      14      13      14      14      13      14      14      13
      14      14      13      14      14      13      14      14      13      14
      14      13      14      14      13      14      14      13      14      14
      13      14      14      13      14      14      13      14      14      13
      14      14      13      14      14      13      14      14      13      14
      14      13      14      14      13      14      14      13      14      14
      13      14      14      13      14      14      13      14      14      13
      14      14      13      14      14      13      14      14      13      14
      14      13      14      14      13      14      14      13      14      14
      13      14      14      13      14      14      13      14      14      13
      14      14      13      14      14      13      14      14      13      14
      14      13      14      14      13      14      14      13      14      14
      13      14      14      13      14      14      13      14      14      13
      14      14      13      14      14      13      14      14      13      14
      14      13      14      14      13      14      14      13      14      14
      13      14      14      13      14      14      13      14      14      13
      14      14      13      14      14      13      14      14      13      14
      14      13      14      14      13      14      14      13      14      14
      13      14      14      13      14      14      13      14      14      13
      14      14      13      14      14      13      14      14      13      14
      14      13      14      14      13      14      14      13      14      14
      13      14      14      13      14      14      13      14      14      13
      14      14      13      14      14      13      14      14      13      14
      14      13      14      14      13      14      14      13      14      14
      13      14      14      13      14      14      13      14      14      13
      14      14      13      14      14      13      14      14      13      14
      14      13      14      14      13      14      14      13      14      14
      13      14      14      13      14      14      13      14      14      13
      14      14      13      14      14      13      14      14      13      14
      14      13      14      14      13      14      14      13      14      14
      13      14      14      13      14      14      13      14      14      13
      14      14      13      14      14      13      14      14      13      14
      14      13      14      14      13      14      14      13      14      14
      13      14      14      13      14      14      13      14      14      13
      14      14      13      14      14      13      14      14      13      14
      14      13      14      14      13      14      14      13      14      14
      13      14      14      13      14      14      13      14      14      13
      14      14      13      14      14      13      14      14      13      14
      14      13      14      14      13      14      14      13      14      14
      13      14      14      13      14      14      13      14      14      13
      14      14      13      14      14      13      14      14      13      14
      14      13      14      14      13      14      14      13      14      14
      13      14      14      13      14      14      13      14      14      13
      14      14      13      14      14      13      14      14      13      14
      14      13      14      14      13      14      14      13      14      14
      13      14      14      13      14      14      13      14      14      13
      14      14      13      14      14      13      14      14      13      14
      14      13      14      14      13      14      14      13      14      14
      13      14      14      13      14      14      13      14      14      13
      14      14      13      14      14      13      14      14      13      14
      14      13      14      14      13      14      14      13      14      14
      13      14      14      13      14      14      13      14      14      13
      14      14      13      14      14      13      14      14      13      14
      14      13      14      14      13      14      14      13      14      14
      13      14      14      13      14      14      13      14      14      13
      14      14      13      14      14      13      14      14      13      14
      14      13      14      14      13      14      14      13      14      14
      13      14      14      13      14      14      13      14      14      13
      14      14      13      14      14      13      14      14      13      14
      14      13      14      14      13      14      14      13      14      14
      13      14      14      13      14      14      13      14      14      13
      14      14      13      14      14      13      14      14      13      14
      14      13      14      14      13      14      14      13      14      14
      13      14      14      13      14      14      13      14      14      13
      14      14      13      14      14      13      14      14      13      14
      14      13      14      14      13      14      14      13      14      14
      13      14      14      13      14      14      13      14      14      13
      14      14      13      14      14      13      14      14      13      14
      14      13      14      14      13      14      14      13      14      14
      13      14      14      13      14      14      13      14      14      13
      14      14      13      14      14      13      14      14      13      14
      14      13      14      14      13      14      14      13      14      14
      13      14      14      13      14      14      13      14      14      13
      14      14      13      14      14      13      14      14      13      14
      14      13      14      14      13      14      14      13      14      14
      13      14      14      13      14      14      13      14      14      13
      14      14      13      14      14      13      14      14      13      14
      14      13      14      14      13      14      14      13      14      14
      13      14      14      13      14      14      13      14      14      13
      14      14      13      14      14      13      14      14      13      14
      14      13      14      14      13      14      14      13      14      14
      13      14      14      13      14      14      13      14      14      13
      14      14      13      14      14      13      14      14      13      14
      14      13      14      14      13      14      14      13      14      14
      13      14      14      13      14      14      13      14      14      13
      14      14      13      14      14      13      14      14      13      14
      14      13      14      14      13      14      14      13      14      14
      13      14      14      13      14      14      13      14      14      13
      14      14      13      14      14      13      14      14      13      14
      14      13      14      14      13      14      14      13      14      14
      13      14      14      13      14      14      13      14      14      13
      14      14      13      14      14      13      14      14      13      14
      14      13      14      14      13      14      14      13      14      14
      13      14      14      13      14      14      13      14      14      13
      14      14      13      14      14      13      14      14      13      14
      14      13      14      14      13      14      14      13      14      14
      13      14      14      13      14      14      13      14      14      13
      14      14      13      14      14      13      14      14      13      14
      14      13      14      14      13      14      14      13      14      14
      13      14      14      13      14      14      13      14      14      13
      14      14      13      14      14      13      14      14      13      14
      14      13      14      14      13      14      14      13      14      14
      13      14      14      13      14      14      13      14      14      13
      14      14      13      14      14      13      14      14      13      14
      14      13      14      14      13      14      14      13      14      14
      13      14      14      13      14      14      13      14      14      13
      14      14      13      14      14      13      14      14      13      14
      14      13      14      14      13      14      14      13      14      14
      13      14      14      13      14      14      13      14      14      13
      14      14      13      14      14      13      14      14      13      14
      14      13      14      14      13      14      14      13      14      14
      13      14      14      13      14      14      13      14      14      13
      14      14      13      14      14      13      14      14      13      14
      14      13      14      14      13      14      14      13      14      14
      13      14      14      13      14      14      13      14      14      13
      14      14      13      14      14      13      14      14      13      14
      14      13      14      14      13      14      14      13      14      14
      13      14      14      13      14      14      13      14      14      13
      14      14      13      14      14      13      14      14      13      14
      14      13      14      14      13      14      14      13      14      14
      13      14      14      13      14      14      13      14      14      13
      14      14      13      14      14      13      14      14      13      14
      14      13      14      14      13      14      14      13      14      14
      13      14      14      13      14      14      13      14      14      13
      14      14      13      14      14      13      14      14      13      14
      14      13      14      14      13      14      14      13      14      14
      13      14      14      13      14      14      13      14      14      13
      14      14      13      14      14      13      14      14      13      14
      14      13      14      14      13      14      14      13      14      14
      13      14      14      13      14      14      13      14      14      13
      14      14      13      14      14      13      14      14      13      14
      14      13      14      14      13      14      14      13      14      14
      13      14      14      13      14      14      13      14      14      13
      14      14      13      14      14      13      14      14      13      14
      14      13      14      14      13      14      14      13      14      14
      13      14      14      13      14      14      13      14      14      13
      14      14      13      14      14      13      14      14      13      14
      14      13      14      14      13      14      14      13      14      14
      13      14      14      13      14      14      13      14      14      13
      14      14      13      14      14      13      14      14      13      14
      14      13      14      14      13      14      14      13      14      14
      13      14      14      13      14      14      13      14      14      13
      14      14      13      14      14      13      14      14      13      14
      14      13      14      14      13      14      14      13      14      14
      13      14      14      13      14      14      13      14      14      13
      14      14      13      14      14      13      14      14      13      14
      14      13      14      14      13      14      14      13      14      14
      13      14      14      13      14      14      13      14      14      13
      14      14      13      14      14      13      14      14      13      14
      14      13      14      14      13      14      14      13      14      14
      13      14      14      13      14      14      13      14      14      13
      14      14      13      14      14      13      14      14      13      14
      14      13      14      14      13      14      14      13      14      14
      13      14      14      13      14      14      13      14      14      13
      14      14      13      14      14      13      14      14      13      14
      14      13      14      14      13      14      14      13      14      14
      13      14      14      13      14      14      13      14      14      13
      14      14      13      14      14      13      14      14      13      14
      14      13      14      14      13      14      14      13      14      14
      13      14      14      13      14      14      13      14      14      13
      14      14      13      14      14      13      14      14      13      14
      14      13      14      14      13      14      14      13      14      14
      13      14      14      13      14      14      13      14      14      13
      14      14      13      14      14      13      14      14      13      14
      14      13      14      14      13      14      14      13      14      14
      13      14      14      13      14      14      13      14      14      13
      14      14      13      14      14      13      14      14      13      14
      14      13      14      14      13      14      14      13      14      14
      13      14      14      13      14      14      13      14      14      13
      14      14      13      14      14      13      14      14      13      14
      14      13      14      14      13      14      14      13      14      14
      13      14      14      13      14      14      13      14      14      13
      14      14      13      14      14      13      14      14      13      14
      14      13      14      14      13      14      14      13      14      14
      13      14      14      13      14      14      13      14      14      13
      14      14      13      14      14      13      14      14      13      14
      14      13      14      14      13      14      14      13      14      14
      13      14      14      13      14      14      13      14      14      13
      14      14      13      14      14      13      14      14      13      14
      14      13      14      14      13      14      14      13      14      14
      13      14      14      13      14      14      13      14      14      13
      14      14      13      14      14      13      14      14      13      14
      14      13      14      14      13      14      14      13      14      14
      13      14      14      13      14      14      13      14      14      13
      14      14      13      14      14      13      14      14      13      14
      14      13      14      14      13      14      14      13      14      14
      13      14      14      13      14      14      13      14      14      13
      14      14      13      14      14      13      14      14      13      14
      14      13      14      14      13      14      14      13      14      14
      13      14      14      13      14      14      13      14      14      13
      14      14      13      14      14      13      14      14      13      14
      14      13      14      14      13      14      14      13      14      14
      13      14      14      13      14      14      13      14      14      13
      14      14      13      14      14      13      14      14      13      14
      14      13      14      14      13      14      14      13      14      14
      13      14      14      13      14      14      13      14      14      13
      14      14      13      14      14      13      14      14      13      14
      14      13      14      14      13      14      14      13      14      14
      13      14      14      13      14      14      13      14      14      13
      14      14      13      14      14      13      14      14      13      14
      14      13      14      14      13      14      14      13      14      14
      13      14      14      13      14      14      13      14      14      13
      14      14      13      14      14      13      14      14      13      14
      14      13      14      14      13      14      14      13      14      14
      13      14      14      13      14      14      13      14      14      13
      14      14      13      14      14      13      14      14      13      14
      14      13      14      14      13      14      14      13      14      14
      13      14      14      13      14      14      13      14      14      13
      14      14      13      14      14      13      14      14      13      14
      14      13      14      14      13      14      14      13      14      14
      13      14      14      13      14      14      13      14      14      13
      14      14      13      14      14      13      14      14      13      14
      14      13      14      14      13      14      14      13      14      14
      13      14      14      13      14      14      13      14      14      13
      14      14      13      14      14      13      14      14      13      14
      14      13      14      14      13      14      14      13      14      14
      13      14      14      13      14      14      13      14      14      13
      14      14      13      14      14      13      14      14      13      14
      14      13      14      14      13      14      14      13      14      14
      13      14      14      13      14      14      13      14      14      13
      14      14      13      14      14      13      14      14      13      14
      14      13      14      14      13      14      14      13      14      14
      13      14      14      13      14      14      13      14      14      13
      14      14      13      14      14      13      14      14      13      14
      14      13      14      14      13      14      14      13      14      14
      13      14      14      13      14      14      13      14      14      13
      14      14      13      14      14      13      14      14      13      14
      14      13      14      14      13      14      14      13      14      14
      13      14      14      13      14      14      13      14      14      13
      14      14      13      14      14      13      14      14      13      14
      14      13      14      14      13      14      14      13      14      14
      13      14      14      13      14      14      13      14      14      13
      14      14      13      14      14      13      14      14      13      14
      14      13      14      14      13      14      14      13      14      14
      13      14      14      13      14      14      13      14      14      13
      14      14      13      14      14      13      14      14      13      14
      14      13      14      14      13      14      14      13      14      14
      13      14      14      13      14      14      13      14      14      13
      14      14      13      14      14      13      14      14      13      14
      14      13      14      14      13      14      14      13      14      14
      13      14      14      13      14      14      13      14      14      13
      14      14      13      14      14      13      14      14      13      14
      14      13      14      14      13      14      14      13      14      14
      13      14      14      13      14      14      13      14      14      13
      14      14      13      14      14      13      14      14      13      14
      14      13      14      14      13      14      14      13      14      14
      13      14      14      13      14      14      13      14      14      13
      14      14      13      14      14      13      14      14      13      14
      14      13      14      14      13      14      14      13      14      14
      13      14      14      13      14      14      13      14      14      13
      14      14      13      14      14      13      14      14      13      14
      14      13      14      14      13      14      14      13      14      14
      13      14      14      13      14      14      13      14      14      13
      14      14      13      14      14      13      14      14      13      14
      14      13      14      14      13      14      14      13      14      14
      13      14      14      13      14      14      13      14      14      13
      14      14      13      14      14      13      14      14      13      14
      14      13      14      14      13      14      14      13      14      14
      13      14      14      13      14      14      13      14      14      13
      14      14      13      14      14      13      14      14      13      14
      14      13      14      14      13      14      14      13      14      14
      13      14      14      13      14      14      13      14      14      13
      14      14      13      14      14      13      14      14      13      14
      14      13      14      14      13      14      14      13      14      14
      13      14      14      13      14      14      13      14      14      13
      14      14      13      14      14      13      14      14      13      14
      14      13      14      14      13      14      14      13      14      14
      13      14      14      13      14      14      13      14      14      13
      14      14      13      14      14      13      14      14      13      14
      14      13      14      14      13      14      14      13      14      14
      13      14      14      13      14      14      13      14      14      13
      14      14      13      14      14      13      14      14      13      14
      14      13      14      14      13      14      14      13      14      14
      13      14      14      13      14      14      13      14      14      13
      14      14      13      14      14      13      14      14      13      14
      14      13      14      14      13      14      14      13      14      14
      13      14      14      13      14      14      13      14      14      13
      14      14      13      14      14      13      14      14      13      14
      14      13      14      14      13      14      14      13      14      14
      13      14      14      13      14      14      13      14      14      13
      14      14      13      14      14      13      14      14      13      14
      14      13      14      14      13      14      14      13      14      14
      13      14      14      13      14      14      13      14      14      13
      14      14      13      14      14      13      14      14      13      14
      14      13      14      14      13      14      14      13      14      14
      13      14      14      13      14      14      13      14      14      13
      14      14      13      14      14      13      14      14      13      14
      14      13      14      14      13      14      14      13      14      14
      13      14      14      13      14      14      13      14      14      13
      14      14      13      14      14      13      14      14      13      14
      14      13      14      14      13      14      14      13      14      14
      13      14      14      13      14      14      13      14      14      13
      14      14      13      14      14      13      14      14      13      14
      14      13      14      14      13      14      14      13      14      14
      13      14      14      13      14      14      13      14      14      13
      14      14      13      14      14      13      14      14      13      14
      14      13      14      14      13      14      14      13      14      14
      13      14      14      13      14      14      13      14      14      13
      14      14      13      14      14      13      14      14      13      14
      14      13      14      14      13      14      14      13      14      14
      13      14      14      13      14      14      13      14      14      13
      14      14      13      14      14      13      14      14      13      14
      14      13      14      14      13      14      14      13      14      14
      13      14      14      13      14      14      13      14      14      13
      14      14      13      14      14      13      14      14      13      14
      14      13      14      14      13      14      14      13      14      14
      13      14      14      13      14      14      13      14      14      13
      14      14      13      14      14      13      14      14      13      14
      14      13      14      14      13      14      14      13      14      14
      13      14      14      13      14      14      13      14      14      13
      14      14      13      14      14      13      14      14      13      14
      14      13      14      14      13      14      14      13      14      14
      13      14      14      13      14      14      13      14      14      13
      14      14      13      14      14      13      14      14      13      14
      14      13      14      14      13      14      14      13      14      14
      13      14      14      13      14      14      13      14      14      13
      14      14      13      14      14      13      14      14      13      14
      14      13      14      14      13      14      14      13      14      14
      13      14      14      13      14      14      13      14      14      13
      14      14      13      14      14      13      14      14      13      14
      14      13      14      14      13      14      14      13      14      14
      13      14      14      13      14      14      13      14      14      13
      14      14      13      14      14      13      14      14      13      14
      14      13      14      14      13      14      14      13      14      14
      13      14      14      13      14      14      13      14      14      13
      14      14      13      14      14      13      14      14      13      14
      14      13      14      14      13      14      14      13      14      14
      13      14      14      13      14      14      13      14      14      13
      14      14      13      14      14      13      14      14      13      14
      14      13      14      14      13      14      14      13      14      14
      13      14      14      13      14      14      13      14      14      13
      14      14      13      14      14      13      14      14      13      14
      14      13      14      14      13      14      14      13      14      14
      13      14      14      13      14      14      13      14      14      13
      14      14      13      14      14      13      14      14      13      14
      14      13      14      14      13      14      14      13      14      14
      13      14      14      13      14      14      13      14      14      13
      14      14      13      14      14      13      14      14      13      14
      14      13      14      14      13      14      14      13      14      14
      13      14      14      13      14      14      13      14      14      13
      14      14      13      14      14      13      14      14      13      14
      14      13      14      14      13      14      14      13      14      14
      13      14      14      13      14      14      13      14      14      13
      14      14      13      14      14      13      14      14      13      14
      14      13      14      14      13      14      14      13      14      14
      13      14      14      13      14      14      13      14      14      13
      14      14      13      14      14      13      14      14      13      14
      14      13      14      14      13      14      14      13      14      14
      13      14      14      13      14      14      13      14      14      13
      14      14      13      14      14      13      14      14      13      14
      14      13      14      14      13      14      14      13      14      14
      13      14      14      13      14      14      13      14      14      13
      14      14      13      14      14      13      14      14      13      14
      14      13      14      14      13      14      14      13      14      14
      13      14      14      13      14      14      13      14      14      13
      14      14      13      14      14      13      14      14      13      14
      14      13      14      14      13      14      14      13      14      14
      13      14      14      13      14      14      13      14      14      13
      14      14      13      14      14      13      14      14      13      14
      14      13      14      14      13      14      14      13      14      14
      13      14      14      13      14      14      13      14      14      13
      14      14      13      14      14      13      14      14      13      14
      14      13      14      14      13      14      14      13      14      14
      13      14      14      13      14      14      13      14      14      13
      14      14      13      14      14      13      14      14      13      14
      14      13      14      14      13      14      14      13      14      14
      13      14      14      13      14      14      13      14      14      13
      14      14      13      14      14      13      14      14      13      14
      14      13      14      14      13      14      14      13      14      14
      13      14      14      13      14      14      13      14      14      13
      14      14      13      14      14      13      14      14      13      14
      14      13      14      14      13      14      14      13      14      14
      13      14      14      13      14      14      13      14      14      13
      14      14      13      14      14      13      14      14      13      14
      14      13      14      14      13      14      14      13      14      14
      13      14      14      13      14      14      13      14      14      13
      14      14      13      14      14      13      14      14      13      14
      14      13      14      14      13      14      14      13      14      14
      13      14      14      13      14      14      13      14      14      13
      14      14      13      14      14      13      14      14      13      14
      14      13      14      14      13      14      14      13      14      14
      13      14      14      13      14      14      13      14      14      13
      14      14      13      14      14      13      14      14      13      14
      14      13      14      14      13      14      14      13      14      14
      13      14      14      13      14      14      13      14      14      13
      14      14      13      14      14      13      14      14      13      14
      14      13      14      14      13      14      14      13      14      14
      13      14      14      13      14      14      13      14      14      13
      14      14      13      14      14      13      14      14      13      14
      14      13      14      14      13      14      14      13      14      14
      13      14      14      13      14      14      13      14      14      13
      14      14      13      14      14      13      14      14      13      14
      14      13      14      14      13      14      14      13      14      14
      13      14      14      13      14      14      13      14      14      13
      14      14      13      14      14      13      14      14      13      14
      14      13      14      14      13      14      14      13      14      14
      13      14      14      13      14      14      13      14      14      13
      14      14      13      14      14      13      14      14      13      14
      14      13      14      14      13      14      14      13      14      14
      13      14      14      13      14      14      13      14      14      13
      14      14      13      14      14      13      14      14      13      14
      14      13      14      14      13      14      14      13      14      14
      13      14      14      13      14      14      13      14      14      13
      14      14      13      14      14      13      14      14      13      14
      14      13      14      14      13      14      14      13      14      14
      13      14      14      13      14      14      13      14      14      13
      14      14      13      14      14      13      14      14      13      14
      14      13      14      14      13      14      14      13      14      14
      13      14      14      13      14      14      13      14      14      13
      14      14      13      14      14      13      14      14      13      14
      14      13      14      14      13      14      14      13      14      14
      13      14      14      13      14      14      13      14      14      13
      14      14      13      14      14      13      14      14      13      14
      14      13      14      14      13      14      14      13      14      14
      13      14      14      13      14      14      13      14      14      13
      14      14      13      14      14      13      14      14      13      14
      14      13      14      14      13      14      14      13      14      14
      13      14      14      13      14      14      13      14      14      13
      14      14      13      14      14      13      14      14      13      14
      14      13      14      14      13      14      14      13      14      14
      13      14      14      13      14      14      13      14      14      13
      14      14      13      14      14      13      14      14      13      14
      14      13      14      14      13      14      14      13      14      14
      13      14      14      13      14      14      13      14      14      13
      14      14      13      14      14      13      14      14      13      14
      14      13      14      14      13      14      14      13      14      14
      13      14      14      13      14      14      13      14      14      13
      14      14      13      14      14      13      14      14      13      14
      14      13      14      14      13      14      14      13      14      14
      13      14      14      13      14      14      13      14      14      13
      14      14      13      14      14      13      14      14      13      14
      14      13      14      14      13      14      14      13      14      14
      13      14      14      13      14      14      13      14      14      13
      14      14      13      14      14      13      14      14      13      14
      14      13      14      14      13      14      14      13      14      14
      13      14      14      13      14      14      13      14      14      13
      14      14      13      14      14      13      14      14      13      14
      14      13      14      14      13      14      14      13      14      14
      13      14      14      13      14      14      13      14      14      13
      14      14      13      14      14      13      14      14      13      14
      14      13      14      14      13      14      14      13      14      14
      13      14      14      13      14      14      13      14      14      13
      14      14      13      14      14      13      14      14      13      14
      14      13      14      14      13      14      14      13      14      14
      13      14      14      13      14      14      13      14      14      13
      14      14      13      14      14      13      14      14      13      14
      14      13      14      14      13      14      14      13      14      14
      13      14      14      13      14      14      13      14      14      13
      14      14      13      14      14      13      14      14      13      14
      14      13      14      14      13      14      14      13      14      14
      13      14      14      13      14      14      13      14      14      13
      14      14      13      14      14      13      14      14      13      14
      14      13      14      14      13      14      14      13      14      14
      13      14      14      13      14      14      13      14      14      13
      14      14      13      14      14      13      14      14      13      14
      14      13      14      14      13      14      14      13      14      14
      13      14      14      13      14      14      13      14      14      13
      14      14      13      14      14      13      14      14      13      14
      14      13      14      14      13      14      14      13      14      14
      13      14      14      13      14      14      13      14      14      13
      14      14      13      14      14      13      14      14      13      14
      14      13      14      14      13      14      14      13      14      14
      13      14      14      13      14      14      13      14      14      13
      14      14      13      14      14      13      14      14      13      14
      14      13      14      14      13      14      14      13      14      14
      13      14      14      13      14      14      13      14      14      13
      14      14      13      14      14      13      14      14      13      14
      14      13      14      14      13      14      14      13      14      14
      13      14      14      13      14      14      13      14      14      13
      14      14      13      14      14      13      14      14      13      14
      14      13      14      14      13      14      14      13      14      14
      13      14      14      13      14      14      13      14      14      13
      14      14      13      14      14      13      14      14      13      14
      14      13      14      14      13      14      14      13      14      14
      13      14      14      13      14      14      13      14      14      13
      14      14      13      14      14      13      14      14      13      14
      14      13      14      14      13      14      14      13      14      14
      13      14      14      13      14      14      13      14      14      13
      14      14      13      14      14      13      14      14      13      14
      14      13      14      14      13      14      14      13      14      14
      13      14      14      13      14      14      13      14      14      13
      14      14      13      14      14      13      14      14      13      14
      14      13      14      14      13      14      14      13      14      14
      13      14      14      13      14      14      13      14      14      13
      14      14      13      14      14      13      14      14      13      14
      14      13      14      14      13      14      14      13      14      14
      13      14      14      13      14      14      13      14      14      13
      14      14      13      14      14      13      14      14      13      14
      14      13      14      14      13      14      14      13      14      14
      13      14      14      13      14      14      13      14      14      13
      14      14      13      14      14      13      14      14      13      14
      14      13      14      14      13      14      14      13      14      14
      13      14      14      13      14      14      13      14      14      13
      14      14      13      14      14      13      14      14      13      14
      14      13      14      14      13      14      14      13      14      14
      13      14      14      13      14      14      13      14      14      13
      14      14      13      14      14      13      14      14      13      14
      14      13      14      14      13      14      14      13      14      14
      13      14      14      13      14      14      13      14      14      13
      14      14      13      14      14      13      14      14      13      14
      14      13      14      14      13      14      14      13      14      14
      13      14      14      13      14      14      13      14      14      13
      14      14      13      14      14      13      14      14      13      14
      14      13      14      14      13      14      14      13      14      14
      13      14      14      13      14      14      13      14      14      13
      14      14      13      14      14      13      14      14      13      14
      14      13      14      14      13      14      14      13      14      14
      13      14      14      13      14      14      13      14      14      13
      14      14      13      14      14      13      14      14      13      14
      14      13      14      14      13      14      14      13      14      14
      13      14      14      13      14      14      13      14      14      13
      14      14      13      14      14      13      14      14      13      14
      14      13      14      14      13      14      14      13      14      14
      13      14      14      13      14      14      13      14      14      13
      14      14      13      14      14      13      14      14      13      14
      14      13      14      14      13      14      14      13      14      14
      13      14      14      13      14      14      13      14      14      13
      14      14      13      14      14      13      14      14      13      14
      14      13      14      14      13      14      14      13      14      14
      13      14      14      13      14      14      13      14      14      13
      14      14      13      14      14      13      14      14      13      14
      14      13      14      14      13      14      14      13      14      14
      13      14      14      13      14      14      13      14      14      13
      14      14      13      14      14      13      14      14      13      14
      14      13      14      14      13      14      14      13      14      14
      13      14      14      13      14      14      13      14      14      13
      14      14      13      14      14      13      14      14      13      14
      14      13      14      14      13      14      14      13      14      14
      13      14      14      13      14      14      13      14      14      13
      14      14      13      14      14      13      14      14      13      14
      14      13      14      14      13      14      14      13      14      14
      13      14      14      13      14      14      13      14      14      13
      14      14      13      14      14      13      14      14      13      14
      14      13      14      14      13      14      14      13      14      14
      13      14      14      13      14      14      13      14      14      13
      14      14      13      14      14      13      14      14      13      14
      14      13      14      14      13      14      14      13      14      14
      13      14      14      13      14      14      13      14      14      13
      14      14      13      14      14      13      14      14      13      14
      14      13      14      14      13      14      14      13      14      14
      13      14      14      13      14      14      13      14      14      13
      14      14      13      14      14      13      14      14      13      14
      14      13      14      14      13      14      14      13      14      14
      13      14      14      13      14      14      13      14      14      13
      14      14      13      14      14      13      14      14      13      14
      14      13      14      14      13      14      14      13      14      14
      13      14      14      13      14      14      13      14      14      13
      14      14      13      14      14      13      14      14      13      14
      14      13      14      14      13      14      14      13      14      14
      13      14      14      13      14      14      13      14      14      13
      14      14      13      14      14      13      14      14      13      14
      14      13      14      14      13      14      14      13      14      14
      13      14      14      13      14      14      13      14      14      13
      14      14      13      14      14      13      14      14      13      14
      14      13      14      14      13      14      14      13      14      14
      13      14      14      13      14      14      13      14      14      13
      14      14      13      14      14      13      14      14      13      14
      14      13      14      14      13      14      14      13      14      14
      13      14      14      13      14      14      13      14      14      13
      14      14      13      14      14      13      14      14      13      14
      14      13      14      14      13      14      14      13      14      14
      13      14      14      13      14      14      13      14      14      13
      14      14      13      14      14      13      14      14      13      14
      14      13      14      14      13      14      14      13      14      14
      13      14      14      13      14      14      13      14      14      13
      14      14      13      14      14      13      14      14      13      14
      14      13      14      14      13      14      14      13      14      14
      13      14      14      13      14      14      13      14      14      13
      14      14      13      14      14      13      14      14      13      14
      14      13      14      14      13      14      14      13      14      14
      13      14      14      13      14      14      13      14      14      13
      14      14      13      14      14      13      14      14      13      14
      14      13      14      14      13      14      14      13      14      14
      13      14      14      13      14      14      13      14      14      13
      14      14      13      14      14      13      14      14      13      14
      14      13      14      14      13      14      14      13      14      14
      13      14      14      13      14      14      13      14      14      13
      14      14      13      14      14      13      14      14      13      14
      14      13      14      14      13      14      14      13      14      14
      13      14      14      13      14      14      13      14      14      13
      14      14      13      14      14      13      14      14      13      14
      14      13      14      14      13      14      14      13      14      14
      13      14      14      13      14      14      13      14      14      13
      14      14      13      14      14      13      14      14      13      14
      14      13      14      14      13      14      14      13      14      14
      13      14      14      13      14      14      13      14      14      13
      14      14      13      14      14      13      14      14      13      14
      14      13      14      14      13      14      14      13      14      14
      13      14      14      13      14      14      13      14      14      13
      14      14      13      14      14      13      14      14      13      14
      14      13      14      14      13      14      14      13      14      14
      13      14      14      13      14      14      13      14      14      13
      14      14      13      14      14      13      14      14      13      14
      14      13      14      14      13      14      14      13      14      14
      13      14      14      13      14      14      13      14      14      13
      14      14      13      14      14      13      14      14      13      14
      14      13      14      14      13      14      14      13      14      14
      13      14      14      13      14      14      13      14      14      13
      14      14      13      14      14      13      14      14      13      14
      14      13      14      14      13      14      14      13      14      14
      13      14      14      13      14      14      13      14      14      13
      14      14      13      14      14      13      14      14      13      14
      14      13      14      14      13      14      14      13      14      14
      13      14      14      13      14      14      13      14      14      13
      14      14      13      14      14      13      14      14      13      14
      14      13      14      14      13      14      14      13      14      14
      13      14      14      13      14      14      13      14      14      13
      14      14      13      14      14      13      14      14      13      14
      14      13      14      14      13      14      14      13      14      14
      13      14      14      13      14      14      13      14      14      13
      14      14      13      14      14      13      14      14      13      14
      14      13      14      14      13      14      14      13      14      14
      13      14      14      13      14      14      13      14      14      13
      14      14      13      14      14      13      14      14      13      14
      14      13      14      14      13      14      14      13      14      14
      13      14      14      13      14      14      13      14      14      13
      14      14      13      14      14      13      14      14      13      14
      14      13      14      14      13      14      14      13      14      14
      13      14      14      13      14      14      13      14      14      13
      14      14      13      14      14      13      14      14      13      14
      14      13      14      14      13      14      14      13      14      14
      13      14      14      13      14      14      13      14      14      13
      14      14      13      14      14      13      14      14      13      14
      14      13      14      14      13      14      14      13      14      14
      13      14      14      13      14      14      13      14      14      13
      14      14      13      14      14      13      14      14      13      14
      14      13      14      14      13      14      14      13      14      14
      13      14      14      13      14      14      13      14      14      13
      14      14      13      14      14      13      14      14      13      14
      14      13      14      14      13      14      14      13      14      14
      13      14      14      13      14      14      13      14      14      13
      14      14      13      14      14      13      14      14      13      14
      14      13      14      14      13      14      14      13      14      14
      13      14      14      13      14      14      13      14      14      13
      14      14      13      14      14      13      14      14      13      14
      14      13      14      14      13      14      14      13      14      14
      13      14      14      13      14      14      13      14      14      13
      14      14      13      14      14      13      14      14      13      14
      14      13      14      14      13      14      14      13      14      14
      13      14      14      13      14      14      13      14      14      13
      14      14      13      14      14      13      14      14      13      14
      14      13      14      14      13      14      14      13      14      14
      13      14      14      13      14      14      13      14      14      13
      14      14      13      14      14      13      14      14      13      14
      14      13      14      14      13      14      14      13      14      14
      13      14      14      13      14      14      13      14      14      13
      14      14      13      14      14      13      14      14      13      14
      14      13      14      14      13      14      14      13      14      14
      13      14      14      13      14      14      13      14      14      13
      14      14      13      14      14      13      14      14      13      14
      14      13      14      14      13      14      14      13      14      14
      13      14      14      13      14      14      13      14      14      13
      14      14      13      14      14      13      14      14      13      14
      14      13      14      14      13      14      14      13      14      14
      13      14      14      13      14      14      13      14      14      13
      14      14      13      14      14      13      14      14      13      14
      14      13      14      14      13      14      14      13      14      14
      13      14      14      13      14      14      13      14      14      13
      14      14      13      14      14      13      14      14      13      14
      14      13      14      14      13      14      14      13      14      14
      13      14      14      13      14      14      13      14      14      13
      14      14      13      14      14      13      14      14      13      14
      14      13      14      14      13      14      14      13      14      14
      13      14      14      13      14      14      13      14      14      13
      14      14      13      14      14      13      14      14      13      14
      14      13      14      14      13      14      14      13      14      14
      13      14      14      13      14      14      13      14      14      13
      14      14      13      14      14      13      14      14      13      14
      14      13      14      14      13      14      14      13      14      14
      13      14      14      13      14      14      13      14      14      13
      14      14      13      14      14      13      14      14      13      14
      14      13      14      14      13      14      14      13      14      14
      13      14      14      13      14      14      13      14      14      13
      14      14      13      14      14      13      14      14      13      14
      14      13      14      14      13      14      14      13      14      14
      13      14      14      13      14      14      13      14      14      13
      14      14      13      14      14      13      14      14      13      14
      14      13      14      14      13      14      14      13      14      14
      13      14      14      13      14      14      13      14      14      13
      14      14      13      14      14      13      14      14      13      14
      14      13      14      14      13      14      14      13      14      14
      13      14      14      13      14      14      13      14      14      13
      14      14      13      14      14      13      14      14      13      14
      14      13      14      14      13      14      14      13      14      14
      13      14      14      13      14      14      13      14      14      13
      14      14      13      14      14      13      14      14      13      14
      14      13      14      14      13      14      14      13      14      14
      13      14      14      13      14      14      13      14      14      13
      14      14      13      14      14      13      14      14      13      14
      14      13      14      14      13      14      14      13      14      14
      13      14      14      13      14      14      13      14      14      13
      14      14      13      14      14      13      14      14      13      14
      14      13      14      14      13      14      14      13      14      14
      13      14      14      13      14      14      13      14      14      13
      14      14      13      14      14      13      14      14      13      14
      14      13      14      14      13      14      14      13      14      14
      13      14      14      13      14      14      13      14      14      13
      14      14      13      14      14      13      14      14      13      14
      14      13      14      14      13      14      14      13      14      14
      13      14      14      13      14      14      13      14      14      13
      14      14      13      14      14      13      14      14      13      14
      14      13      14      14      13      14      14      13      14      14
      13      14      14      13      14      14      13      14      14      13
      14      14      13      14      14      13      14      14      13      14
      14      13      14      14      13      14      14      13      14      14
      13      14      14      13      14      14      13      14      14      13
      14      14      13      14      14      13      14      14      13      14
      14      13      14      14      13      14      14      13      14      14
      13      14      14      13      14      14      13      14      14      13
      14      14      13      14      14      13      14      14      13      14
      14      13      14      14      13      14      14      13      14      14
      13      14      14      13      14      14      13      14      14      13
      14      14      13      14      14      13      14      14      13      14
      14      13      14      14      13      14      14      13      14      14
      13      14      14      13      14      14      13      14      14      13
      14      14      13      14      14      13      14      14      13      14
      14      13      14      14      13      14      14      13      14      14
      13      14      14      13      14      14      13      14      14      13
      14      14      13      14      14      13      14      14      13      14
      14      13      14      14      13      14      14      13      14      14
      13      14      14      13      14      14      13      14      14      13
      14      14      13      14      14      13      14      14      13      14
      14      13      14      14      13      14      14      13      14      14
      13      14      14      13      14      14      13      14      14      13
      14      14      13      14      14      13      14      14      13      14
      14      13      14      14      13      14      14      13      14      14
      13      14      14      13      14      14      13      14      14      13
      14      14      13      14      14      13      14      14      13      14
      14      13      14      14      13      14      14      13      14      14
      13      14      14      13      14      14      13      14      14      13
      14      14      13      14      14      13      14      14      13      14
      14      13      14      14      13      14      14      13      14      14
      13      14      14      13      14      14      13      14      14      13
      14      14      13      14      14      13      14      14      13      14
      14      13      14      14      13      14      14      13      14      14
      13      14      14      13      14      14      13      14      14      13
      14      14      13      14      14      13      14      14      13      14
      14      13      14      14      13      14      14      13      14      14
      13      14      14      13      14      14      13      14      14      13
      14      14      13      14      14      13      14      14      13      14
      14      13      14      14      13      14      14      13      14      14
      13      14      14      13      14      14      13      14      14      13
      14      14      13      14      14      13      14      14      13      14
      14      13      14      14      13      14      14      13      14      14
      13      14      14      13      14      14      13      14      14      13
      14      14      13      14      14      13      14      14      13      14
      14      13      14      14      13      14      14      13      14      14
      13      14      14      13      14      14      13      14      14      13
      14      14      13      14      14      13      14      14      13      14
      14      13      14      14      13      14      14      13      14      14
      13      14      14      13      14      14      13      14      14      13
      14      14      13      14      14      13      14      14      13      14
      14      13      14      14      13      14      14      13      14      14
      13      14      14      13      14      14      13      14      14      13
      14      14      13      14      14      13      14      14      13      14
      14      13      14      14      13      14      14      13      14      14
      13      14      14      13      14      14      13      14      14      13
      14      14      13      14      14      13      14      14      13      14
      14      13      14      14      13      14      14      13      14      14
      13      14      14      13      14      14      13      14      14      13
      14      14      13      14      14      13      14      14      13      14
      14      13      14      14      13      14      14      13      14      14
      13      14      14      13      14      14      13      14      14      13
      14      14      13      14      14      13      14      14      13      14
      14      13      14      14      13      14      14      13      14      14
      13      14      14      13      14      14      13      14      14      13
      14      14      13      14      14      13      14      14      13      14
      14      13      14      14      13      14      14      13      14      14
      13      14      14      13      14      14      13      14      14      13
      14      14      13      14      14      13      14      14      13      14
      14      13      14      14      13      14      14      13      14      14
      13      14      14      13      14      14      13      14      14      13
      14      14      13      14      14      13      14      14      13      14
      14      13      14      14      13      14      14      13      14      14
      13      14      14      13      14      14      13      14      14      13
      14      14      13      14      14      13      14      14      13      14
      14      13      14      14      13      14      14      13      14      14
      13      14      14      13      14      14      13      14      14      13
      14      14      13      14      14      13      14      14      13      14
      14      13      14      14      13      14      14      13      14      14
      13      14      14      13      14      14      13      14      14      13
      14      14      13      14      14      13      14      14      13      14
      14      13      14      14      13      14      14      13      14      14
      13      14      14      13      14      14      13      14      14      13
      14      14      13      14      14      13      14      14      13      14
      14      13      14      14      13      14      14      13      14      14
      13      14      14      13      14      14      13      14      14      13
      14      14      13      14      14      13      14      14      13      14
      14      13      14      14      13      14      14      13      14      14
      13      14      14      13      14      14      13      14      14      13
      14      14      13      14      14      13      14      14      13      14
      14      13      14      14      13      14      14      13      14      14
      13      14      14      13      14      14      13      14      14      13
      14      14      13      14      14      13      14      14      13      14
      14      13      14      14      13      14      14      13      14      14
      13      14      14      13      14      14      13      14      14      13
      14      14      13      14      14      13      14      14      13      14
      14      13      14      14      13      14      14      13      14      14
      13      14      14      13      14      14      13      14      14      13
      14      14      13      14      14      13      14      14      13      14
      14      13      14      14      13      14      14      13      14      14
      13      14      14      13      14      14      13      14      14      13
      14      14      13      14      14      13      14      14      13      14
      14      13      14      14      13      14      14      13      14      14
      13      14      14      13      14      14      13      14      14      13
      14      14      13      14      14      13      14      14      13      14
      14      13      14      14      13      14      14      13      14      14
      13      14      14      13      14      14      13      14      14      13
      14      14      13      14      14      13      14      14      13      14
      14      13      14      14      13      14      14      13      14      14
      13      14      14      13      14      14      13      14      14      13
      14      14      13      14      14      13      14      14      13      14
      14      13      14      14      13      14      14      13      14      14
      13      14      14      13      14      14      13      14      14      13
      14      14      13      14      14      13      14      14      13      14
      14      13      14      14      13      14      14      13      14      14
      13      14      14      13      14      14      13      14      14      13
      14      14      13      14      14      13      14      14      13      14
      14      13      14      14      13      14      14      13      14      14
      13      14      14      13      14      14      13      14      14      13
      14      14      13      14      14      13      14      14      13      14
      14      13      14      14      13      14      14      13      14      14
      13      14      14      13      14      14      13      14      14      13
      14      14      13      14      14      13      14      14      13      14
      14      13      14      14      13      14      14      13      14      14
      13      14      14      13      14      14      13      14      14      13
      14      14      13      14      14      13      14      14      13      14
      14      13      14      14      13      14      14      13      14      14
      13      14      14      13      14      14      13      14      14      13
      14      14      13      14      14      13      14      14      13      14
      14      13      14      14      13      14      14      13      14      14
      13      14      14      13      14      14      13      14      14      13
      14      14      13      14      14      13      14      14      13      14
      14      13      14      14      13      14      14      13      14      14
      13      14      14      13      14      14      13      14      14      13
      14      14      13      14      14      13      14      14      13      14
      14      13      14      14      13      14      14      13      14      14
      13      14      14      13      14      14      13      14      14      13
      14      14      13      14      14      13      14      14      13      14
      14      13      14      14      13      14      14      13      14      14
      13      14      14      13      14      14      13      14      14      13
      14      14      13      14      14      13      14      14      13      14
      14      13      14      14      13      14      14      13      14      14
      13      14      14      13      14      14      13      14      14      13
      14      14      13      14      14      13      14      14      13      14
      14      13      14      14      13      14      14      13      14      14
      13      14      14      13      14      14      13      14      14      13
      14      14      13      14      14      13      14      14      13      14
      14      13      14      14      13      14      14      13      14      14
      13      14      14      13      14      14      13      14      14      13
      14      14      13      14      14      13      14      14      13      14
      14      13      14      14      13      14      14      13      14      14
      13      14      14      13      14      14      13      14      14      13
      14      14      13      14      14      13      14      14      13      14
      14      13      14      14      13      14      14      13      14      14
      13      14      14      13      14      14      13      14      14      13
      14      14      13      14      14      13      14      14      13      14
      14      13      14      14      13      14      14      13      14      14
      13      14      14      13      14      14      13      14      14      13
      14      14      13      14      14      13      14      14      13      14
      14      13      14      14      13      14      14      13      14      14
      13      14      14      13      14      14      13      14      14      13
      14      14      13      14      14      13      14      14      13      14
      14      13      14      14      13      14      14
%FLAG NUMBER_EXCLUDED_ATOMS                                                     
%FORMAT(10I8)                                                                   
      10      11      13       9       9      12       9       7       9       9
       8       7       7       6       5       4       2       1       1       1
       1       1       1       1       1       1       8       4       3       8
      16      18       9      15      13       8      11      12      10       4
       9      11      12      11      11      14      18      15       8      14
       8       5      11       9       5       7       4       4       1       3
       1       2       1       2       3       3       2       3       2       3
       2       1       1       2       2       1       2       2       1       1
       2       1       1       1       8      16      18       9      15      13
       8      11      12      10       4       9      11      12      11      11
      14      18      15       8      14       8       5      11       9       5
       7       4       4       1       3       1       2       1       2       3
       3       2       3       2       3       2       1       1       2       2
       1       2       2       1       1       2       1       1       1       8
      16      18       9      15      13       8      11      12      10       4
       9      11      12      11      11      14      18      15       8      14
       8       5      11       9       5       7       4       4       1       3
       1       2       1       2       3       3       2       3       2       3
       2       1       1       2       2       1       2       2       1       1
       2       1       1       1       8      16      18       9      15      13
       8      11      12      10       4       9      11      12      11      11
      14      18      15       8      14       8       5      11       9       5
       7       4       4       1       3       1       2       1       2       3
       3       2       3       2       3       2       1       1       2       2
       1       2       2       1       1       2       1       1       1       8
      16      18       9      15      13       8      11      12      10       4
       9      11      12      11      11      14      18      15       8      14
       8       5      11       9       5       7       4       4       1       3
       1       2       1       2       3       3       2       3       2       3
       2       1       1       2       2       1       2       2       1       1
       2       1       1       1       8      16      18       9      15      13
       8      11      12      10       4       9      11      12      11      11
      14      18      15       8      14       8       5      11       9       5
       7       4       4       1       3       1       2       1       2       3
       3       2       3       2       3       2       1       1       2       2
       1       2       2       1       1       2       1       1       1       8
      16      18       9      15      13       8      11      12      10       4
       9      11      12      11      11      14      18      15       8      14
       8       5      11       9       5       7       4       4       1       3
       1       2       1       2       3       3       2       3       2       3
       2       1       1       2       2       1       2       2       1       1
       2       1       1       1       8      16      18       9      15      13
       8      11      12      10       4       9      11      12      11      11
      14      18      15       8      14       8       5      11       9       5
       7       4       4       1       3       1       2       1       2       3
       3       2       3       2       3       2       1       1       2       2
       1       2       2       1       1       2       1       1       1       8
      16      18       9      15      13       8      11      12      10       4
       9      11      12      11      11      14      18      15       8      14
       8       5      11       9       5       7       4       4       1       3
       1       2       1       2       3       3       2       3       2       3
       2       1       1       2       2       1       2       2       1       1
       2       1       1       1       8      16      18       9      15      13
       8      11      12       7       4       9      11      12      11      11
      14      18      15       8      14       8       5      11       9       5
       7       4       4       1       3       1       2       1       2       3
       3       2       3       2       3       2       1       1       2       2
       1       2       2       1       1       2       1       1       1       2
       1       1       8       4       3       8      16      18       9      15
      13       8      11      12      10       4       9      11      12      11
      11      14      18      15       8      14       8       5      11       9
       5       7       4       4       1       3       1       2       1       2
       3       3       2       3       2       3       2       1       1       2
       2       1       2       2       1       1       2       1       1       1
       8      16      18       9      15      13       8      11      12      10
       4       9      11      12      11      11      14      18      15       8
      14       8       5      11       9       5       7       4       4       1
       3       1       2       1       2       3       3       2       3       2
       3       2       1       1       2       2       1       2       2       1
       1       2       1       1       1       8      16      18       9      15
      13       8      11      12      10       4       9      11      12      11
      11      14      18      15       8      14       8       5      11       9
       5       7       4       4       1       3       1       2       1       2
       3       3       2       3       2       3       2       1       1       2
       2       1       2       2       1       1       2       1       1       1
       8      16      18       9      15      13       8      11      12      10
       4       9      11      12      11      11      14      18      15       8
      14       8       5      11       9       5       7       4       4       1
       3       1       2       1       2       3       3       2       3       2
       3       2       1       1       2       2       1       2       2       1
       1       2       1       1       1       8      16      18       9      15
      13       8      11      12      10       4       9      11      12      11
      11      14      18      15       8      14       8       5      11       9
       5       7       4       4       1       3       1       2       1       2
       3       3       2       3       2       3       2       1       1       2
       2       1       2       2       1       1       2       1       1       1
       8      16      18       9      15      13       8      11      12      10
       4       9      11      12      11      11      14      18      15       8
      14       8       5      11       9       5       7       4       4       1
       3       1       2       1       2       3       3       2       3       2
       3       2       1       1       2       2       1       2       2       1
       1       2       1       1       1       8      16      18       9      15
      13       8      11      12      10       4       9      11      12      11
      11      14      18      15       8      14       8       5      11       9
       5       7       4       4       1       3       1       2       1       2
       3       3       2       3       2       3       2       1       1       2
       2       1       2       2       1       1       2       1       1       1
       8      16      18       9      15      13       8      11      12      10
       4       9      11      12      11      11      14      18      15       8
      14       8       5      11       9       5       7       4       4       1
       3       1       2       1       2       3       3       2       3       2
       3       2       1       1       2       2       1       2       2       1
       1       2       1       1       1       8      16      18       9      15
      13       8      11      12      10       4       9      11      12      11
      11      14      18      15       8      14       8       5      11       9
       5       7       4       4       1       3       1       2       1       2
       3       3       2       3       2       3       2       1       1       2
       2       1       2       2       1       1       2       1       1       1
       8      16      18       9      15      13       8      11      12       7
       4       9      11      12      11      11      14      18      15       8
      14       8       5      11       9       5       7       4       4       1
       3       1       2       1       2       3       3       2       3       2
       3       2       1       1       2       2       1       2       2       1
       1       2       1       1       1       2       1       1       8       4
       3       8      16      18       9      15      13       8      11      12
      10       4       9      11      12      11      11      14      18      15
       8      14       8       5      11       9       5       7       4       4
       1       3       1       2       1       2       3       3       2       3
       2       3       2       1       1       2       2       1       2       2
       1       1       2       1       1       1       8      16      18       9
      15      13       8      11      12      10       4       9      11      12
      11      11      14      18      15       8      14       8       5      11
       9       5       7       4       4       1       3       1       2       1
       2       3       3       2       3       2       3       2       1       1
       2       2       1       2       2       1       1       2       1       1
       1       8      16      18       9      15      13       8      11      12
      10       4       9      11      12      11      11      14      18      15
       8      14       8       5      11       9       5       7       4       4
       1       3       1       2       1       2       3       3       2       3
       2       3       2       1       1       2       2       1       2       2
       1       1       2       1       1       1       8      16      18       9
      15      13       8      11      12      10       4       9      11      12
      11      11      14      18      15       8      14       8       5      11
       9       5       7       4       4       1       3       1       2       1
       2       3       3       2       3       2       3       2       1       1
       2       2       1       2       2       1       1       2       1       1
       1       8      16      18       9      15      13       8      11      12
      10       4       9      11      12      11      11      14      18      15
       8      14       8       5      11       9       5       7       4       4
       1       3       1       2       1       2       3       3       2       3
       2       3       2       1       1       2       2       1       2       2
       1       1       2       1       1       1       8      16      18       9
      15      13       8      11      12      10       4       9      11      12
      11      11      14      18      15       8      14       8       5      11
       9       5       7       4       4       1       3       1       2       1
       2       3       3       2       3       2       3       2       1       1
       2       2       1       2       2       1       1       2       1       1
       1       8      16      18       9      15      13       8      11      12
      10       4       9      11      12      11      11      14      18      15
       8      14       8       5      11       9       5       7       4       4
       1       3       1       2       1       2       3       3       2       3
       2       3       2       1       1       2       2       1       2       2
       1       1       2       1       1       1       8      16      18       9
      15      13       8      11      12      10       4       9      11      12
      11      11      14      18      15       8      14       8       5      11
       9       5       7       4       4       1       3       1       2       1
       2       3       3       2       3       2       3       2       1       1
       2       2       1       2       2       1       1       2       1       1
       1       8      16      18       9      15      13       8      11      12
      10       4       9      11      12      11      11      14      18      15
       8      14       8       5      11       9       5       7       4       4
       1       3       1       2       1       2       3       3       2       3
       2       3       2       1       1       2       2       1       2       2
       1       1       2       1       1       1       8      16      18       9
      15      13       8      11      12       7       4       9      11      12
      11      11      14      18      15       8      14       8       5      11
       9       5       7       4       4       1       3       1       2       1
       2       3       3       2       3       2       3       2       1       1
       2       2       1       2       2       1       1       2       1       1
       1       2       1       1       2       1       1       2       1       1
       2       1       1       2       1       1       2       1       1       2
       1       1       2       1       1       2       1       1       2       1
       1       2       1       1       2       1       1       2       1       1
       2       1       1       2       1       1       2       1       1       2
       1       1       2       1       1       2       1       1       2       1
       1       2       1       1       2       1       1       2       1       1
       2       1       1       2       1       1       2       1       1       2
       1       1       2       1       1       2       1       1       2       1
       1       2       1       1       2       1       1       2       1       1
       2       1       1       2       1       1       2       1       1       2
       1       1       2       1       1       2       1       1       2       1
       1       2       1       1       2       1       1       2       1       1
       2       1       1       2       1       1       2       1       1       2
       1       1       2       1       1       2       1       1       2       1
       1       2       1       1       2       1       1       2       1       1
       2       1       1       2       1       1       2       1       1       2
       1       1       2       1       1       2       1       1       2       1
       1       2       1       1       2       1       1       2       1       1
       2       1       1       2       1       1       2       1       1       2
       1       1       2       1       1       2       1       1       2       1
       1       2       1       1       2       1       1       2       1       1
       2       1       1       2       1       1       2       1       1       2
       1       1       2       1       1       2       1       1       2       1
       1       2       1       1       2       1       1       2       1       1
       2       1       1       2       1       1       2       1       1       2
       1       1       2       1       1       2       1       1       2       1
       1       2       1       1       2       1       1       2       1       1
       2       1       1       2       1       1       2       1       1       2
       1       1       2       1       1       2       1       1       2       1
       1       2       1       1       2       1       1       2       1       1
       2       1       1       2       1       1       2       1       1       2
       1       1       2       1       1       2       1       1       2       1
       1       2       1       1       2       1       1       2       1       1
       2       1       1       2       1       1       2       1       1       2
       1       1       2       1       1       2       1       1       2       1
       1       2       1       1       2       1       1       2       1       1
       2       1       1       2       1       1       2       1       1       2
       1       1       2       1       1       2       1       1       2       1
       1       2       1       1       2       1       1       2       1       1
       2       1       1       2       1       1       2       1       1       2
       1       1       2       1       1       2       1       1       2       1
       1       2       1       1       2       1       1       2       1       1
       2       1       1       2       1       1       2       1       1       2
       1       1       2       1       1       2       1       1       2       1
       1       2       1       1       2       1       1       2       1       1
       2       1       1       2       1       1       2       1       1       2
       1       1       2       1       1       2       1       1       2       1
       1       2       1       1       2       1       1       2       1       1
       2       1       1       2       1       1       2       1       1       2
       1       1       2       1       1       2       1       1       2       1
       1       2       1       1       2       1       1       2       1       1
       2       1       1       2       1       1       2       1       1       2
       1       1       2       1       1       2       1       1       2       1
       1       2       1       1       2       1       1       2       1       1
       2       1       1       2       1       1       2       1       1       2
       1       1       2       1       1       2       1       1       2       1
       1       2       1       1       2       1       1       2       1       1
       2       1       1       2       1       1       2       1       1       2
       1       1       2       1       1       2       1       1       2       1
       1       2       1       1       2       1       1       2       1       1
       2       1       1       2       1       1       2       1       1       2
       1       1       2       1       1       2       1       1       2       1
       1       2       1       1       2       1       1       2       1       1
       2       1       1       2       1       1       2       1       1       2
       1       1       2       1       1       2       1       1       2       1
       1       2       1       1       2       1       1       2       1       1
       2       1       1       2       1       1       2       1       1       2
       1       1       2       1       1       2       1       1       2       1
       1       2       1       1       2       1       1       2       1       1
       2       1       1       2       1       1       2       1       1       2
       1       1       2       1       1       2       1       1       2       1
       1       2       1       1       2       1       1       2       1       1
       2       1       1       2       1       1       2       1       1       2
       1       1       2       1       1       2       1       1       2       1
       1       2       1       1       2       1       1       2       1       1
       2       1       1       2       1       1       2       1       1       2
       1       1       2       1       1       2       1       1       2       1
       1       2       1       1       2       1       1       2       1       1
       2       1       1       2       1       1       2       1       1       2
       1       1       2       1       1       2       1       1       2       1
       1       2       1       1       2       1       1       2       1       1
       2       1       1       2       1       1       2       1       1       2
       1       1       2       1       1       2       1       1       2       1
       1       2       1       1       2       1       1       2       1       1
       2       1       1       2       1       1       2       1       1       2
       1       1       2       1       1       2       1       1       2       1
       1       2       1       1       2       1       1       2       1       1
       2       1       1       2       1       1       2       1       1       2
       1       1       2       1       1       2       1       1       2       1
       1       2       1       1       2       1       1       2       1       1
       2       1       1       2       1       1       2       1       1       2
       1       1       2       1       1       2       1       1       2       1
       1       2       1       1       2       1       1       2       1       1
       2       1       1       2       1       1       2       1       1       2
       1       1       2       1       1       2       1       1       2       1
       1       2       1       1       2       1       1       2       1       1
       2       1       1       2       1       1       2       1       1       2
       1       1       2       1       1       2       1       1       2       1
       1       2       1       1       2       1       1       2       1       1
       2       1       1       2       1       1       2       1       1       2
       1       1       2       1       1       2       1       1       2       1
       1       2       1       1       2       1       1       2       1       1
       2       1       1       2       1       1       2       1       1       2
       1       1       2       1       1       2       1       1       2       1
       1       2       1       1       2       1       1       2       1       1
       2       1       1       2       1       1       2       1       1       2
       1       1       2       1       1       2       1       1       2       1
       1       2       1       1       2       1       1       2       1       1
       2       1       1       2       1       1       2       1       1       2
       1       1       2       1       1       2       1       1       2       1
       1       2       1       1       2       1       1       2       1       1
       2       1       1       2       1       1       2       1       1       2
       1       1       2       1       1       2       1       1       2       1
       1       2       1       1       2       1       1       2       1       1
       2       1       1       2       1       1       2       1       1       2
       1       1       2       1       1       2       1       1       2       1
       1       2       1       1       2       1       1       2       1       1
       2       1       1       2       1       1       2       1       1       2
       1       1       2       1       1       2       1       1       2       1
       1       2       1       1       2       1       1       2       1       1
       2       1       1       2       1       1       2       1       1       2
       1       1       2       1       1       2       1       1       2       1
       1       2       1       1       2       1       1       2       1       1
       2       1       1       2       1       1       2       1       1       2
       1       1       2       1       1       2       1       1       2       1
       1       2       1       1       2       1       1       2       1       1
       2       1       1       2       1       1       2       1       1       2
       1       1       2       1       1       2       1       1       2       1
       1       2       1       1       2       1       1       2       1       1
       2       1       1       2       1       1       2       1       1       2
       1       1       2       1       1       2       1       1       2       1
       1       2       1       1       2       1       1       2       1       1
       2       1       1       2       1       1       2       1       1       2
       1       1       2       1       1       2       1       1       2       1
       1       2       1       1       2       1       1       2       1       1
       2       1       1       2       1       1       2       1       1       2
       1       1       2       1       1       2       1       1       2       1
       1       2       1       1       2       1       1       2       1       1
       2       1       1       2       1       1       2       1       1       2
       1       1       2       1       1       2       1       1       2       1
       1       2       1       1       2       1       1       2       1       1
       2       1       1       2       1       1       2       1       1       2
       1       1       2       1       1       2       1       1       2       1
       1       2       1       1       2       1       1       2       1       1
       2       1       1       2       1       1       2       1       1       2
       1       1       2       1       1       2       1       1       2       1
       1       2       1       1       2       1       1       2       1       1
       2       1       1       2       1       1       2       1       1       2
       1       1       2       1       1       2       1       1       2       1
       1       2       1       1       2       1       1       2       1       1
       2       1       1       2       1       1       2       1       1       2
       1       1       2       1       1       2       1       1       2       1
       1       2       1       1       2       1       1       2       1       1
       2       1       1       2       1       1       2       1       1       2
       1       1       2       1       1       2       1       1       2       1
       1       2       1       1       2       1       1       2       1       1
       2       1       1       2       1       1       2       1       1       2
       1       1       2       1       1       2       1       1       2       1
       1       2       1       1       2       1       1       2       1       1
       2       1       1       2       1       1       2       1       1       2
       1       1       2       1       1       2       1       1       2       1
       1       2       1       1       2       1       1       2       1       1
       2       1       1       2       1       1       2       1       1       2
       1       1       2       1       1       2       1       1       2       1
       1       2       1       1       2       1       1       2       1       1
       2       1       1       2       1       1       2       1       1       2
       1       1       2       1       1       2       1       1       2       1
       1       2       1       1       2       1       1       2       1       1
       2       1       1       2       1       1       2       1       1       2
       1       1       2       1       1       2       1       1       2       1
       1       2       1       1       2       1       1       2       1       1
       2       1       1       2       1       1       2       1       1       2
       1       1       2       1       1       2       1       1       2       1
       1       2       1       1       2       1       1       2       1       1
       2       1       1       2       1       1       2       1       1       2
       1       1       2       1       1       2       1       1       2       1
       1       2       1       1       2       1       1       2       1       1
       2       1       1       2       1       1       2       1       1       2
       1       1       2       1       1       2       1       1       2       1
       1       2       1       1       2       1       1       2       1       1
       2       1       1       2       1       1       2       1       1       2
       1       1       2       1       1       2       1       1       2       1
       1       2       1       1       2       1       1       2       1       1
       2       1       1       2       1       1       2       1       1       2
       1       1       2       1       1       2       1       1       2       1
       1       2       1       1       2       1       1       2       1       1
       2       1       1       2       1       1       2       1       1       2
       1       1       2       1       1       2       1       1       2       1
       1       2       1       1       2       1       1       2       1       1
       2       1       1       2       1       1       2       1       1       2
       1       1       2       1       1       2       1       1       2       1
       1       2       1       1       2       1       1       2       1       1
       2       1       1       2       1       1       2       1       1       2
       1       1       2       1       1       2       1       1       2       1
       1       2       1       1       2       1       1       2       1       1
       2       1       1       2       1       1       2       1       1       2
       1       1       2       1       1       2       1       1       2       1
       1       2       1       1       2       1       1       2       1       1
       2       1       1       2       1       1       2       1       1       2
       1       1       2       1       1       2       1       1       2       1
       1       2       1       1       2       1       1       2       1       1
       2       1       1       2       1       1       2       1       1       2
       1       1       2       1       1       2       1       1       2       1
       1       2       1       1       2       1       1       2       1       1
       2       1       1       2       1       1       2       1       1       2
       1       1       2       1       1       2       1       1       2       1
       1       2       1       1       2       1       1       2       1       1
       2       1       1       2       1       1       2       1       1       2
       1       1       2       1       1       2       1       1       2       1
       1       2       1       1       2       1       1       2       1       1
       2       1       1       2       1       1       2       1       1       2
       1       1       2       1       1       2       1       1       2       1
       1       2       1       1       2       1       1       2       1       1
       2       1       1       2       1       1       2       1       1       2
       1       1       2       1       1       2       1       1       2       1
       1       2       1       1       2       1       1       2       1       1
       2       1       1       2       1       1       2       1       1       2
       1       1       2       1       1       2       1       1       2       1
       1       2       1       1       2       1       1       2       1       1
       2       1       1       2       1       1       2       1       1       2
       1       1       2       1       1       2       1       1       2       1
       1       2       1       1       2       1       1       2       1       1
       2       1       1       2       1       1       2       1       1       2
       1       1       2       1       1       2       1       1       2       1
       1       2       1       1       2       1       1       2       1       1
       2       1       1       2       1       1       2       1       1       2
       1       1       2       1       1       2       1       1       2       1
       1       2       1       1       2       1       1       2       1       1
       2       1       1       2       1       1       2       1       1       2
       1       1       2       1       1       2       1       1       2       1
       1       2       1       1       2       1       1       2       1       1
       2       1       1       2       1       1       2       1       1       2
       1       1       2       1       1       2       1       1       2       1
       1       2       1       1       2       1       1       2       1       1
       2       1       1       2       1       1       2       1       1       2
       1       1       2       1       1       2       1       1       2       1
       1       2       1       1       2       1       1       2       1       1
       2       1       1       2       1       1       2       1       1       2
       1       1       2       1       1       2       1       1       2       1
       1       2       1       1       2       1       1       2       1       1
       2       1       1       2       1       1       2       1       1       2
       1       1       2       1       1       2       1       1       2       1
       1       2       1       1       2       1       1       2       1       1
       2       1       1       2       1       1       2       1       1       2
       1       1       2       1       1       2       1       1       2       1
       1       2       1       1       2       1       1       2       1       1
       2       1       1       2       1       1       2       1       1       2
       1       1       2       1       1       2       1       1       2       1
       1       2       1       1       2       1       1       2       1       1
       2       1       1       2       1       1       2       1       1       2
       1       1       2       1       1       2       1       1       2       1
       1       2       1       1       2       1       1       2       1       1
       2       1       1       2       1       1       2       1       1       2
       1       1       2       1       1       2       1       1       2       1
       1       2       1       1       2       1       1       2       1       1
       2       1       1       2       1       1       2       1       1       2
       1       1       2       1       1       2       1       1       2       1
       1       2       1       1       2       1       1       2       1       1
       2       1       1       2       1       1       2       1       1       2
       1       1       2       1       1       2       1       1       2       1
       1       2       1       1       2       1       1       2       1       1
       2       1       1       2       1       1       2       1       1       2
       1       1       2       1       1       2       1       1       2       1
       1       2       1       1       2       1       1       2       1       1
       2       1       1       2       1       1       2       1       1       2
       1       1       2       1       1       2       1       1       2       1
       1       2       1       1       2       1       1       2       1       1
       2       1       1       2       1       1       2       1       1       2
       1       1       2       1       1       2       1       1       2       1
       1       2       1       1       2       1       1       2       1       1
       2       1       1       2       1       1       2       1       1       2
       1       1       2       1       1       2       1       1       2       1
       1       2       1       1       2       1       1       2       1       1
       2       1       1       2       1       1       2       1       1       2
       1       1       2       1       1       2       1       1       2       1
       1       2       1       1       2       1       1       2       1       1
       2       1       1       2       1       1       2       1       1       2
       1       1       2       1       1       2       1       1       2       1
       1       2       1       1       2       1       1       2       1       1
       2       1       1       2       1       1       2       1       1       2
       1       1       2       1       1       2       1       1       2       1
       1       2       1       1       2       1       1       2       1       1
       2       1       1       2       1       1       2       1       1       2
       1       1       2       1       1       2       1       1       2       1
       1       2       1       1       2       1       1       2       1       1
       2       1       1       2       1       1       2       1       1       2
       1       1       2       1       1       2       1       1       2       1
       1       2       1       1       2       1       1       2       1       1
       2       1       1       2       1       1       2       1       1       2
       1       1       2       1       1       2       1       1       2       1
       1       2       1       1       2       1       1       2       1       1
       2       1       1       2       1       1       2       1       1       2
       1       1       2       1       1       2       1       1       2       1
       1       2       1       1       2       1       1       2       1       1
       2       1       1       2       1       1       2       1       1       2
       1       1       2       1       1       2       1       1       2       1
       1       2       1       1       2       1       1       2       1       1
       2       1       1       2       1       1       2       1       1       2
       1       1       2       1       1       2       1       1       2       1
       1       2       1       1       2       1       1       2       1       1
       2       1       1       2       1       1       2       1       1       2
       1       1       2       1       1       2       1       1       2       1
       1       2       1       1       2       1       1       2       1       1
       2       1       1       2       1       1       2       1       1       2
       1       1       2       1       1       2       1       1       2       1
       1       2       1       1       2       1       1       2       1       1
       2       1       1       2       1       1       2       1       1       2
       1       1       2       1       1       2       1       1       2       1
       1       2       1       1       2       1       1       2       1       1
       2       1       1       2       1       1       2       1       1       2
       1       1       2       1       1       2       1       1       2       1
       1       2       1       1       2       1       1       2       1       1
       2       1       1       2       1       1       2       1       1       2
       1       1       2       1       1       2       1       1       2       1
       1       2       1       1       2       1       1       2       1       1
       2       1       1       2       1       1       2       1       1       2
       1       1       2       1       1       2       1       1       2       1
       1       2       1       1       2       1       1       2       1       1
       2       1       1       2       1       1       2       1       1       2
       1       1       2       1       1       2       1       1       2       1
       1       2       1       1       2       1       1       2       1       1
       2       1       1       2       1       1       2       1       1       2
       1       1       2       1       1       2       1       1       2       1
       1       2       1       1       2       1       1       2       1       1
       2       1       1       2       1       1       2       1       1       2
       1       1       2       1       1       2       1       1       2       1
       1       2       1       1       2       1       1       2       1       1
       2       1       1       2       1       1       2       1       1       2
       1       1       2       1       1       2       1       1       2       1
       1       2       1       1       2       1       1       2       1       1
       2       1       1       2       1       1       2       1       1       2
       1       1       2       1       1       2       1       1       2       1
       1       2       1       1       2       1       1       2       1       1
       2       1       1       2       1       1       2       1       1       2
       1       1       2       1       1       2       1       1       2       1
       1       2       1       1       2       1       1       2       1       1
       2       1       1       2       1       1       2       1       1       2
       1       1       2       1       1       2       1       1       2       1
       1       2       1       1       2       1       1       2       1       1
       2       1       1       2       1       1       2       1       1       2
       1       1       2       1       1       2       1       1       2       1
       1       2       1       1       2       1       1       2       1       1
       2       1       1       2       1       1       2       1       1       2
       1       1       2       1       1       2       1       1       2       1
       1       2       1       1       2       1       1       2       1       1
       2       1       1       2       1       1       2       1       1       2
       1       1       2       1       1       2       1       1       2       1
       1       2       1       1       2       1       1       2       1       1
       2       1       1       2       1       1       2       1       1       2
       1       1       2       1       1       2       1       1       2       1
       1       2       1       1       2       1       1       2       1       1
       2       1       1       2       1       1       2       1       1       2
       1       1       2       1       1       2       1       1       2       1
       1       2       1       1       2       1       1       2       1       1
       2       1       1       2       1       1       2       1       1       2
       1       1       2       1       1       2       1       1       2       1
       1       2       1       1       2       1       1       2       1       1
       2       1       1       2       1       1       2       1       1       2
       1       1       2       1       1       2       1       1       2       1
       1       2       1       1       2       1       1       2       1       1
       2       1       1       2       1       1       2       1       1       2
       1       1       2       1       1       2       1       1       2       1
       1       2       1       1       2       1       1       2       1       1
       2       1       1       2       1       1       2       1       1       2
       1       1       2       1       1       2       1       1       2       1
       1       2       1       1       2       1       1       2       1       1
       2       1       1       2       1       1       2       1       1       2
       1       1       2       1       1       2       1       1       2       1
       1       2       1       1       2       1       1       2       1       1
       2       1       1       2       1       1       2       1       1       2
       1       1       2       1       1       2       1       1       2       1
       1       2       1       1       2       1       1       2       1       1
       2       1       1       2       1       1       2       1       1       2
       1       1       2       1       1       2       1       1       2       1
       1       2       1       1       2       1       1       2       1       1
       2       1       1       2       1       1       2       1       1       2
       1       1       2       1       1       2       1       1       2       1
       1       2       1       1       2       1       1       2       1       1
       2       1       1       2       1       1       2       1       1       2
       1       1       2       1       1       2       1       1       2       1
       1       2       1       1       2       1       1       2       1       1
       2       1       1       2       1       1       2       1       1       2
       1       1       2       1       1       2       1       1       2       1
       1       2       1       1       2       1       1       2       1       1
       2       1       1       2       1       1       2       1       1       2
       1       1       2       1       1       2       1       1       2       1
       1       2       1       1       2       1       1       2       1       1
       2       1       1       2       1       1       2       1       1       2
       1       1       2       1       1       2       1       1       2       1
       1       2       1       1       2       1       1       2       1       1
       2       1       1       2       1       1       2       1       1       2
       1       1       2       1       1       2       1       1       2       1
       1       2       1       1       2       1       1       2       1       1
       2       1       1       2       1       1       2       1       1       2
       1       1       2       1       1       2       1       1       2       1
       1       2       1       1       2       1       1       2       1       1
       2       1       1       2       1       1       2       1       1       2
       1       1       2       1       1       2       1       1       2       1
       1       2       1       1       2       1       1       2       1       1
       2       1       1       2       1       1       2       1       1       2
       1       1       2       1       1       2       1       1       2       1
       1       2       1       1       2       1       1       2       1       1
       2       1       1       2       1       1       2       1       1       2
       1       1       2       1       1       2       1       1       2       1
       1       2       1       1       2       1       1       2       1       1
       2       1       1       2       1       1       2       1       1       2
       1       1       2       1       1       2       1       1       2       1
       1       2       1       1       2       1       1       2       1       1
       2       1       1       2       1       1       2       1       1       2
       1       1       2       1       1       2       1       1       2       1
       1       2       1       1       2       1       1       2       1       1
       2       1       1       2       1       1       2       1       1       2
       1       1       2       1       1       2       1       1       2       1
       1       2       1       1       2       1       1       2       1       1
       2       1       1       2       1       1       2       1       1       2
       1       1       2       1       1       2       1       1       2       1
       1       2       1       1       2       1       1       2       1       1
       2       1       1       2       1       1       2       1       1       2
       1       1       2       1       1       2       1       1       2       1
       1       2       1       1       2       1       1       2       1       1
       2       1       1       2       1       1       2       1       1       2
       1       1       2       1       1       2       1       1       2       1
       1       2       1       1       2       1       1       2       1       1
       2       1       1       2       1       1       2       1       1       2
       1       1       2       1       1       2       1       1       2       1
       1       2       1       1       2       1       1       2       1       1
       2       1       1       2       1       1       2       1       1       2
       1       1       2       1       1       2       1       1       2       1
       1       2       1       1       2       1       1       2       1       1
       2       1       1       2       1       1       2       1       1       2
       1       1       2       1       1       2       1       1       2       1
       1       2       1       1       2       1       1       2       1       1
       2       1       1       2       1       1       2       1       1       2
       1       1       2       1       1       2       1       1       2       1
       1       2       1       1       2       1       1       2       1       1
       2       1       1       2       1       1       2       1       1       2
       1       1       2       1       1       2       1       1       2       1
       1       2       1       1       2       1       1       2       1       1
       2       1       1       2       1       1       2       1       1       2
       1       1       2       1       1       2       1       1       2       1
       1       2       1       1       2       1       1       2       1       1
       2       1       1       2       1       1       2       1       1       2
       1       1       2       1       1       2       1       1       2       1
       1       2       1       1       2       1       1       2       1       1
       2       1       1       2       1       1       2       1       1       2
       1       1       2       1       1       2       1       1       2       1
       1       2       1       1       2       1       1       2       1       1
       2       1       1       2       1       1       2       1       1       2
       1       1       2       1       1       2       1       1       2       1
       1       2       1       1       2       1       1       2       1       1
       2       1       1       2       1       1       2       1       1       2
       1       1       2       1       1       2       1       1       2       1
       1       2       1       1       2       1       1       2       1       1
       2       1       1       2       1       1       2       1       1       2
       1       1       2       1       1       2       1       1       2       1
       1       2       1       1       2       1       1       2       1       1
       2       1       1       2       1       1       2       1       1       2
       1       1       2       1       1       2       1       1       2       1
       1       2       1       1       2       1       1       2       1       1
       2       1       1       2       1       1       2       1       1       2
       1       1       2       1       1       2       1       1       2       1
       1       2       1       1       2       1       1       2       1       1
       2       1       1       2       1       1       2       1       1       2
       1       1       2       1       1       2       1       1       2       1
       1       2       1       1       2       1       1       2       1       1
       2       1       1       2       1       1       2       1       1       2
       1       1       2       1       1       2       1       1       2       1
       1       2       1       1       2       1       1       2       1       1
       2       1       1       2       1       1       2       1       1       2
       1       1       2       1       1       2       1       1       2       1
       1       2       1       1       2       1       1       2       1       1
       2       1       1       2       1       1       2       1       1       2
       1       1       2       1       1       2       1       1       2       1
       1       2       1       1       2       1       1       2       1       1
       2       1       1       2       1       1       2       1       1       2
       1       1       2       1       1       2       1       1       2       1
       1       2       1       1       2       1       1       2       1       1
       2       1       1       2       1       1       2       1       1       2
       1       1       2       1       1       2       1       1       2       1
       1       2       1       1       2       1       1       2       1       1
       2       1       1       2       1       1       2       1       1       2
       1       1       2       1       1       2       1       1       2       1
       1       2       1       1       2       1       1       2       1       1
       2       1       1       2       1       1       2       1       1       2
       1       1       2       1       1       2       1       1       2       1
       1       2       1       1       2       1       1       2       1       1
       2       1       1       2       1       1       2       1       1       2
       1       1       2       1       1       2       1       1       2       1
       1       2       1       1       2       1       1       2       1       1
       2       1       1       2       1       1       2       1       1       2
       1       1       2       1       1       2       1       1       2       1
       1       2       1       1       2       1       1       2       1       1
       2       1       1       2       1       1       2       1       1       2
       1       1       2       1       1       2       1       1       2       1
       1       2       1       1       2       1       1       2       1       1
       2       1       1       2       1       1       2       1       1       2
       1       1       2       1       1       2       1       1       2       1
       1       2       1       1       2       1       1       2       1       1
       2       1       1       2       1       1       2       1       1       2
       1       1       2       1       1       2       1       1       2       1
       1       2       1       1       2       1       1       2       1       1
       2       1       1       2       1       1       2       1       1       2
       1       1       2       1       1       2       1       1       2       1
       1       2       1       1       2       1       1       2       1       1
       2       1       1       2       1       1       2       1       1       2
       1       1       2       1       1       2       1       1       2       1
       1       2       1       1       2       1       1       2       1       1
       2       1       1       2       1       1       2       1       1       2
       1       1       2       1       1       2       1       1       2       1
       1       2       1       1       2       1       1       2       1       1
       2       1       1       2       1       1       2       1       1       2
       1       1       2       1       1       2       1       1       2       1
       1       2       1       1       2       1       1       2       1       1
       2       1       1       2       1       1       2       1       1       2
       1       1       2       1       1       2       1       1       2       1
       1       2       1       1       2       1       1       2       1       1
       2       1       1       2       1       1       2       1       1       2
       1       1       2       1       1       2       1       1       2       1
       1       2       1       1       2       1       1       2       1       1
       2       1       1       2       1       1       2       1       1       2
       1       1       2       1       1       2       1       1       2       1
       1       2       1       1       2       1       1       2       1       1
       2       1       1       2       1       1       2       1       1       2
       1       1       2       1       1       2       1       1       2       1
       1       2       1       1       2       1       1       2       1       1
       2       1       1       2       1       1       2       1       1       2
       1       1       2       1       1       2       1       1       2       1
       1       2       1       1       2       1       1       2       1       1
       2       1       1       2       1       1       2       1       1       2
       1       1       2       1       1       2       1       1       2       1
       1       2       1       1       2       1       1       2       1       1
       2       1       1       2       1       1       2       1       1       2
       1       1       2       1       1       2       1       1       2       1
       1       2       1       1       2       1       1       2       1       1
       2       1       1       2       1       1       2       1       1       2
       1       1       2       1       1       2       1       1       2       1
       1       2       1       1       2       1       1       2       1       1
       2       1       1       2       1       1       2       1       1       2
       1       1       2       1       1       2       1       1       2       1
       1       2       1       1       2       1       1       2       1       1
       2       1       1       2       1       1       2       1       1       2
       1       1       2       1       1       2       1       1       2       1
       1       2       1       1       2       1       1       2       1       1
       2       1       1       2       1       1       2       1       1       2
       1       1       2       1       1       2       1       1       2       1
       1       2       1       1       2       1       1       2       1       1
       2       1       1       2       1       1       2       1       1       2
       1       1       2       1       1       2       1       1       2       1
       1       2       1       1       2       1       1       2       1       1
       2       1       1       2       1       1       2       1       1       2
       1       1       2       1       1       2       1       1       2       1
       1       2       1       1       2       1       1       2       1       1
       2       1       1       2       1       1       2       1       1       2
       1       1       2       1       1       2       1       1       2       1
       1       2       1       1       2       1       1       2       1       1
       2       1       1       2       1       1       2       1       1       2
       1       1       2       1       1       2       1       1       2       1
       1       2       1       1       2       1       1       2       1       1
       2       1       1       2       1       1       2       1       1       2
       1       1       2       1       1       2       1       1       2       1
       1       2       1       1       2       1       1       2       1       1
       2       1       1       2       1       1       2       1       1       2
       1       1       2       1       1       2       1       1       2       1
       1       2       1       1       2       1       1       2       1       1
       2       1       1       2       1       1       2       1       1       2
       1       1       2       1       1       2       1       1       2       1
       1       2       1       1       2       1       1       2       1       1
       2       1       1       2       1       1       2       1       1       2
       1       1       2       1       1       2       1       1       2       1
       1       2       1       1       2       1       1       2       1       1
       2       1       1       2       1       1       2       1       1       2
       1       1       2       1       1       2       1       1       2       1
       1       2       1       1       2       1       1       2       1       1
       2       1       1       2       1       1       2       1       1       2
       1       1       2       1       1       2       1       1       2       1
       1       2       1       1       2       1       1       2       1       1
       2       1       1       2       1       1       2       1       1       2
       1       1       2       1       1       2       1       1       2       1
       1       2       1       1       2       1       1       2       1       1
       2       1       1       2       1       1       2       1       1       2
       1       1       2       1       1       2       1       1       2       1
       1       2       1       1       2       1       1       2       1       1
       2       1       1       2       1       1       2       1       1       2
       1       1       2       1       1       2       1       1       2       1
       1       2       1       1       2       1       1       2       1       1
       2       1       1       2       1       1       2       1       1       2
       1       1       2       1       1       2       1       1       2       1
       1       2       1       1       2       1       1       2       1       1
       2       1       1       2       1       1       2       1       1       2
       1       1       2       1       1       2       1       1       2       1
       1       2       1       1       2       1       1       2       1       1
       2       1       1       2       1       1       2       1       1       2
       1       1       2       1       1       2       1       1       2       1
       1       2       1       1       2       1       1       2       1       1
       2       1       1       2       1       1       2       1       1       2
       1       1       2       1       1       2       1       1       2       1
       1       2       1       1       2       1       1       2       1       1
       2       1       1       2       1       1       2       1       1       2
       1       1       2       1       1       2       1       1       2       1
       1       2       1       1       2       1       1       2       1       1
       2       1       1       2       1       1       2       1       1       2
       1       1       2       1       1       2       1       1       2       1
       1       2       1       1       2       1       1       2       1       1
       2       1       1       2       1       1       2       1       1       2
       1       1       2       1       1       2       1       1       2       1
       1       2       1       1       2       1       1       2       1       1
       2       1       1       2       1       1       2       1       1       2
       1       1       2       1       1       2       1       1       2       1
       1       2       1       1       2       1       1       2       1       1
       2       1       1       2       1       1       2       1       1       2
       1       1       2       1       1       2       1       1       2       1
       1       2       1       1       2       1       1       2       1       1
       2       1       1       2       1       1       2       1       1       2
       1       1       2       1       1       2       1       1       2       1
       1       2       1       1       2       1       1       2       1       1
       2       1       1       2       1       1       2       1       1       2
       1       1       2       1       1       2       1       1       2       1
       1       2       1       1       2       1       1       2       1       1
       2       1       1       2       1       1       2       1       1       2
       1       1       2       1       1       2       1       1       2       1
       1       2       1       1       2       1       1       2       1       1
       2       1       1       2       1       1       2       1       1       2
       1       1       2       1       1       2       1       1       2       1
       1       2       1       1       2       1       1       2       1       1
       2       1       1       2       1       1       2       1       1       2
       1       1       2       1       1       2       1       1       2       1
       1       2       1       1       2       1       1       2       1       1
       2       1       1       2       1       1       2       1       1       2
       1       1       2       1       1       2       1       1       2       1
       1       2       1       1       2       1       1       2       1       1
       2       1       1       2       1       1       2       1       1       2
       1       1       2       1       1       2       1       1       2       1
       1       2       1       1       2       1       1       2       1       1
       2       1       1       2       1       1       2       1       1       2
       1       1       2       1       1       2       1       1       2       1
       1       2       1       1       2       1       1       2       1       1
       2       1       1       2       1       1       2       1       1       2
       1       1       2       1       1       2       1       1       2       1
       1       2       1       1       2       1       1       2       1       1
       2       1       1       2       1       1       2       1       1       2
       1       1       2       1       1       2       1       1       2       1
       1       2       1       1       2       1       1       2       1       1
       2       1       1       2       1       1       2       1       1       2
       1       1       2       1       1       2       1       1       2       1
       1       2       1       1       2       1       1       2       1       1
       2       1       1       2       1       1       2       1       1       2
       1       1       2       1       1       2       1       1       2       1
       1       2       1       1       2       1       1       2       1       1
       2       1       1       2       1       1       2       1       1       2
       1       1       2       1       1       2       1       1       2       1
       1       2       1       1       2       1       1       2       1       1
       2       1       1       2       1       1       2       1       1       2
       1       1       2       1       1       2       1       1       2       1
       1       2       1       1       2       1       1       2       1       1
       2       1       1       2       1       1       2       1       1       2
       1       1       2       1       1       2       1       1       2       1
       1       2       1       1       2       1       1       2       1       1
       2       1       1       2       1       1       2       1       1       2
       1       1       2       1       1       2       1       1       2       1
       1       2       1       1       2       1       1       2       1       1
       2       1       1       2       1       1       2       1       1       2
       1       1       2       1       1       2       1       1       2       1
       1       2       1       1       2       1       1       2       1       1
       2       1       1       2       1       1       2       1       1       2
       1       1       2       1       1       2       1       1       2       1
       1       2       1       1       2       1       1       2       1       1
       2       1       1       2       1       1       2       1       1       2
       1       1       2       1       1       2       1       1       2       1
       1       2       1       1       2       1       1       2       1       1
       2       1       1       2       1       1       2       1       1       2
       1       1       2       1       1       2       1       1       2       1
       1       2       1       1       2       1       1       2       1       1
       2       1       1       2       1       1       2       1       1       2
       1       1       2       1       1       2       1       1       2       1
       1       2       1       1       2       1       1       2       1       1
       2       1       1       2       1       1       2       1       1       2
       1       1       2       1       1       2       1       1       2       1
       1       2       1       1       2       1       1       2       1       1
       2       1       1       2       1       1       2       1       1       2
       1       1       2       1       1       2       1       1       2       1
       1       2       1       1       2       1       1       2       1       1
       2       1       1       2       1       1       2       1       1       2
       1       1       2       1       1       2       1       1       2       1
       1       2       1       1       2       1       1       2       1       1
       2       1       1       2       1       1       2       1       1       2
       1       1       2       1       1       2       1       1       2       1
       1       2       1       1       2       1       1       2       1       1
       2       1       1       2       1       1       2       1       1       2
       1       1       2       1       1       2       1       1       2       1
       1       2       1       1       2       1       1       2       1       1
       2       1       1       2       1       1       2       1       1       2
       1       1       2       1       1       2       1       1       2       1
       1       2       1       1       2       1       1       2       1       1
       2       1       1       2       1       1       2       1       1       2
       1       1       2       1       1       2       1       1       2       1
       1       2       1       1       2       1       1       2       1       1
       2       1       1       2       1       1       2       1       1       2
       1       1       2       1       1       2       1       1       2       1
       1       2       1       1       2       1       1       2       1       1
       2       1       1       2       1       1       2       1       1       2
       1       1       2       1       1       2       1       1       2       1
       1       2       1       1       2       1       1       2       1       1
       2       1       1       2       1       1       2       1       1       2
       1       1       2       1       1       2       1       1       2       1
       1       2       1       1       2       1       1       2       1       1
       2       1       1       2       1       1       2       1       1       2
       1       1       2       1       1       2       1       1       2       1
       1       2       1       1       2       1       1       2       1       1
       2       1       1       2       1       1       2       1       1       2
       1       1       2       1       1       2       1       1       2       1
       1       2       1       1       2       1       1       2       1       1
       2       1       1       2       1       1       2       1       1       2
       1       1       2       1       1       2       1       1       2       1
       1       2       1       1       2       1       1       2       1       1
       2       1       1       2       1       1       2       1       1       2
       1       1       2       1       1       2       1       1       2       1
       1       2       1       1       2       1       1       2       1       1
       2       1       1       2       1       1       2       1       1       2
       1       1       2       1       1       2       1       1       2       1
       1       2       1       1       2       1       1       2       1       1
       2       1       1       2       1       1       2       1       1       2
       1       1       2       1       1       2       1       1       2       1
       1       2       1       1       2       1       1       2       1       1
       2       1       1       2       1       1       2       1       1       2
       1       1       2       1       1       2       1       1       2       1
       1       2       1       1       2       1       1       2       1       1
       2       1       1       2       1       1       2       1       1       2
       1       1       2       1       1       2       1       1       2       1
       1       2       1       1       2       1       1       2       1       1
       2       1       1       2       1       1       2       1       1       2
       1       1       2       1       1       2       1       1       2       1
       1       2       1       1       2       1       1       2       1       1
       2       1       1       2       1       1       2       1       1       2
       1       1       2       1       1       2       1       1       2       1
       1       2       1       1       2       1       1       2       1       1
       2       1       1       2       1       1       2       1       1       2
       1       1       2       1       1       2       1       1       2       1
       1       2       1       1       2       1       1       2       1       1
       2       1       1       2       1       1       2       1       1       2
       1       1       2       1       1       2       1       1       2       1
       1       2       1       1       2       1       1       2       1       1
       2       1       1       2       1       1       2       1       1       2
       1       1       2       1       1       2       1       1       2       1
       1       2       1       1       2       1       1       2       1       1
       2       1       1       2       1       1       2       1       1       2
       1       1       2       1       1       2       1       1       2       1
       1       2       1       1       2       1       1       2       1       1
       2       1       1       2       1       1       2       1       1       2
       1       1       2       1       1       2       1       1       2       1
       1       2       1       1       2       1       1       2       1       1
       2       1       1       2       1       1       2       1       1       2
       1       1       2       1       1       2       1       1       2       1
       1       2       1       1       2       1       1       2       1       1
       2       1       1       2       1       1       2       1       1       2
       1       1       2       1       1       2       1       1       2       1
       1       2       1       1       2       1       1       2       1       1
       2       1       1       2       1       1       2       1       1       2
       1       1       2       1       1       2       1       1       2       1
       1       2       1       1       2       1       1       2       1       1
       2       1       1       2       1       1       2       1       1       2
       1       1       2       1       1       2       1       1       2       1
       1       2       1       1       2       1       1       2       1       1
       2       1       1       2       1       1       2       1       1       2
       1       1       2       1       1       2       1       1       2       1
       1       2       1       1       2       1       1       2       1       1
       2       1       1       2       1       1       2       1       1       2
       1       1       2       1       1       2       1       1       2       1
       1       2       1       1       2       1       1       2       1       1
       2       1       1       2       1       1       2       1       1       2
       1       1       2       1       1       2       1       1       2       1
       1       2       1       1       2       1       1       2       1       1
       2       1       1       2       1       1       2       1       1       2
       1       1       2       1       1       2       1       1       2       1
       1       2       1       1       2       1       1       2       1       1
       2       1       1       2       1       1       2       1       1       2
       1       1       2       1       1       2       1       1       2       1
       1       2       1       1       2       1       1       2       1       1
       2       1       1       2       1       1       2       1       1       2
       1       1       2       1       1       2       1       1       2       1
       1       2       1       1       2       1       1       2       1       1
       2       1       1       2       1       1       2       1       1       2
       1       1       2       1       1       2       1       1       2       1
       1       2       1       1       2       1       1       2       1       1
       2       1       1       2       1       1       2       1       1       2
       1       1       2       1       1       2       1       1       2       1
       1       2       1       1       2       1       1       2       1       1
       2       1       1       2       1       1       2       1       1       2
       1       1       2       1       1       2       1       1       2       1
       1       2       1       1       2       1       1       2       1       1
       2       1       1       2       1       1       2       1       1       2
       1       1       2       1       1       2       1       1       2       1
       1       2       1       1       2       1       1       2       1       1
       2       1       1       2       1       1       2       1       1       2
       1       1       2       1       1       2       1       1       2       1
       1       2       1       1       2       1       1       2       1       1
       2       1       1       2       1       1       2       1       1       2
       1       1       2       1       1       2       1       1       2       1
       1       2       1       1       2       1       1       2       1       1
       2       1       1       2       1       1       2       1       1       2
       1       1       2       1       1       2       1       1       2       1
       1       2       1       1       2       1       1       2       1       1
       2       1       1       2       1       1       2       1       1       2
       1       1       2       1       1       2       1       1       2       1
       1       2       1       1       2       1       1       2       1       1
       2       1       1       2       1       1       2       1       1       2
       1       1       2       1       1       2       1       1       2       1
       1       2       1       1       2       1       1       2       1       1
       2       1       1       2       1       1       2       1       1       2
       1       1       2       1       1       2       1       1       2       1
       1       2       1       1       2       1       1       2       1       1
       2       1       1       2       1       1       2       1       1       2
       1       1       2       1       1       2       1       1       2       1
       1       2       1       1       2       1       1       2       1       1
       2       1       1       2       1       1       2       1       1       2
       1       1       2       1       1       2       1       1       2       1
       1       2       1       1       2       1       1       2       1       1
       2       1       1       2       1       1       2       1       1       2
       1       1       2       1       1       2       1       1       2       1
       1       2       1       1       2       1       1       2       1       1
       2       1       1       2       1       1       2       1       1       2
       1       1       2       1       1       2       1       1       2       1
       1       2       1       1       2       1       1       2       1       1
       2       1       1       2       1       1       2       1       1       2
       1       1       2       1       1       2       1       1       2       1
       1       2       1       1       2       1       1       2       1       1
       2       1       1       2       1       1       2       1       1       2
       1       1       2       1       1       2       1       1       2       1
       1       2       1       1       2       1       1       2       1       1
       2       1       1       2       1       1       2       1       1       2
       1       1       2       1       1       2       1       1       2       1
       1       2       1       1       2       1       1       2       1       1
       2       1       1       2       1       1       2       1       1       2
       1       1       2       1       1       2       1       1       2       1
       1       2       1       1       2       1       1       2       1       1
       2       1       1       2       1       1       2       1       1       2
       1       1       2       1       1       2       1       1       2       1
       1       2       1       1       2       1       1       2       1       1
       2       1       1       2       1       1       2       1       1       2
       1       1       2       1       1       2       1       1       2       1
       1       2       1       1       2       1       1       2       1       1
       2       1       1       2       1       1       2       1       1       2
       1       1       2       1       1       2       1       1       2       1
       1       2       1       1       2       1       1       2       1       1
       2       1       1       2       1       1       2       1       1       2
       1       1       2       1       1       2       1       1       2       1
       1       2       1       1       2       1       1       2       1       1
       2       1       1       2       1       1       2       1       1       2
       1       1       2       1       1       2       1       1       2       1
       1       2       1       1       2       1       1       2       1       1
       2       1       1       2       1       1       2       1       1       2
       1       1       2       1       1       2       1       1       2       1
       1       2       1       1       2       1       1       2       1       1
       2       1       1       2       1       1       2       1       1       2
       1       1       2       1       1       2       1       1       2       1
       1       2       1       1       2       1       1       2       1       1
       2       1       1       2       1       1       2       1       1       2
       1       1       2       1       1       2       1       1       2       1
       1       2       1       1       2       1       1       2       1       1
       2       1       1       2       1       1       2       1       1       2
       1       1       2       1       1       2       1       1       2       1
       1       2       1       1       2       1       1       2       1       1
       2       1       1       2       1       1       2       1       1       2
       1       1       2       1       1       2       1       1       2       1
       1       2       1       1       2       1       1       2       1       1
       2       1       1       2       1       1       2       1       1       2
       1       1       2       1       1       2       1       1       2       1
       1       2       1       1       2       1       1       2       1       1
       2       1       1       2       1       1       2       1       1       2
       1       1       2       1       1       2       1       1       2       1
       1       2       1       1       2       1       1       2       1       1
       2       1       1       2       1       1       2       1       1       2
       1       1       2       1       1       2       1       1       2       1
       1       2       1       1       2       1       1       2       1       1
       2       1       1       2       1       1       2       1       1       2
       1       1       2       1       1       2       1       1       2       1
       1       2       1       1       2       1       1       2       1       1
       2       1       1       2       1       1       2       1       1       2
       1       1       2       1       1       2       1       1       2       1
       1       2       1       1       2       1       1       2       1       1
       2       1       1       2       1       1       2       1       1       2
       1       1       2       1       1       2       1       1       2       1
       1       2       1       1       2       1       1       2       1       1
       2       1       1       2       1       1       2       1       1       2
       1       1       2       1       1       2       1       1       2       1
       1       2       1       1       2       1       1       2       1       1
       2       1       1       2       1       1       2       1       1       2
       1       1       2       1       1       2       1       1       2       1
       1       2       1       1       2       1       1       2       1       1
       2       1       1       2       1       1       2       1       1       2
       1       1       2       1       1       2       1       1       2       1
       1       2       1       1       2       1       1       2       1       1
       2       1       1       2       1       1       2       1       1       2
       1       1       2       1       1       2       1       1       2       1
       1       2       1       1       2       1       1       2       1       1
       2       1       1       2       1       1       2       1       1       2
       1       1       2       1       1       2       1       1       2       1
       1       2       1       1       2       1       1       2       1       1
       2       1       1       2       1       1       2       1       1       2
       1       1       2       1       1       2       1       1       2       1
       1       2       1       1       2       1       1       2       1       1
       2       1       1       2       1       1       2       1       1       2
       1       1       2       1       1       2       1       1       2       1
       1       2       1       1       2       1       1       2       1       1
       2       1       1       2       1       1       2       1       1       2
       1       1       2       1       1       2       1       1       2       1
       1       2       1       1       2       1       1       2       1       1
       2       1       1       2       1       1       2       1       1       2
       1       1       2       1       1       2       1       1       2       1
       1       2       1       1       2       1       1       2       1       1
       2       1       1       2       1       1       2       1       1       2
       1       1       2       1       1       2       1       1       2       1
       1       2       1       1       2       1       1       2       1       1
       2       1       1       2       1       1       2       1       1       2
       1       1       2       1       1       2       1       1       2       1
       1       2       1       1       2       1       1       2       1       1
       2       1       1       2       1       1       2       1       1       2
       1       1       2       1       1       2       1       1       2       1
       1       2       1       1       2       1       1       2       1       1
       2       1       1       2       1       1       2       1       1       2
       1       1       2       1       1       2       1       1       2       1
       1       2       1       1       2       1       1       2       1       1
       2       1       1       2       1       1       2       1       1       2
       1       1       2       1       1       2       1       1       2       1
       1       2       1       1       2       1       1       2       1       1
       2       1       1       2       1       1       2       1       1       2
       1       1       2       1       1       2       1       1       2       1
       1       2       1       1       2       1       1       2       1       1
       2       1       1       2       1       1       2       1       1       2
       1       1       2       1       1       2       1       1       2       1
       1       2       1       1       2       1       1       2       1       1
       2       1       1       2       1       1       2       1       1       2
       1       1       2       1       1       2       1       1       2       1
       1       2       1       1       2       1       1       2       1       1
       2       1       1       2       1       1       2       1       1       2
       1       1       2       1       1       2       1       1       2       1
       1       2       1       1       2       1       1       2       1       1
       2       1       1       2       1       1       2       1       1       2
       1       1       2       1       1       2       1       1       2       1
       1       2       1       1       2       1       1       2       1       1
       2       1       1       2       1       1       2       1       1       2
       1       1       2       1       1       2       1       1       2       1
       1       2       1       1       2       1       1       2       1       1
       2       1       1       2       1       1       2       1       1       2
       1       1       2       1       1       2       1       1       2       1
       1       2       1       1       2       1       1       2       1       1
       2       1       1       2       1       1       2       1       1       2
       1       1       2       1       1       2       1       1       2       1
       1       2       1       1       2       1       1       2       1       1
       2       1       1       2       1       1       2       1       1       2
       1       1       2       1       1       2       1       1       2       1
       1       2       1       1       2       1       1       2       1       1
       2       1       1       2       1       1       2       1       1       2
       1       1       2       1       1       2       1       1       2       1
       1       2       1       1       2       1       1       2       1       1
       2       1       1       2       1       1       2       1       1       2
       1       1       2       1       1       2       1       1       2       1
       1       2       1       1       2       1       1       2       1       1
       2       1       1       2       1       1       2       1       1       2
       1       1       2       1       1       2       1       1       2       1
       1       2       1       1       2       1       1       2       1       1
       2       1       1       2       1       1       2       1       1       2
       1       1       2       1       1       2       1       1       2       1
       1       2       1       1       2       1       1       2       1       1
       2       1       1       2       1       1       2       1       1       2
       1       1       2       1       1       2       1       1       2       1
       1       2       1       1       2       1       1       2       1       1
       2       1       1       2       1       1       2       1       1       2
       1       1       2       1       1       2       1       1       2       1
       1       2       1       1       2       1       1       2       1       1
       2       1       1       2       1       1       2       1       1       2
       1       1       2       1       1       2       1       1       2       1
       1       2       1       1       2       1       1       2       1       1
       2       1       1       2       1       1       2       1       1       2
       1       1       2       1       1       2       1       1       2       1
       1       2       1       1       2       1       1       2       1       1
       2       1       1       2       1       1       2       1       1       2
       1       1       2       1       1       2       1       1       2       1
       1       2       1       1       2       1       1       2       1       1
       2       1       1       2       1       1       2       1       1       2
       1       1       2       1       1       2       1       1       2       1
       1       2       1       1       2       1       1       2       1       1
       2       1       1       2       1       1       2       1       1       2
       1       1       2       1       1       2       1       1       2       1
       1       2       1       1       2       1       1       2       1       1
       2       1       1       2       1       1       2       1       1       2
       1       1       2       1       1       2       1       1       2       1
       1       2       1       1       2       1       1       2       1       1
       2       1       1       2       1       1       2       1       1       2
       1       1       2       1       1       2       1       1       2       1
       1       2       1       1       2       1       1       2       1       1
       2       1       1       2       1       1       2       1       1       2
       1       1       2       1       1       2       1       1       2       1
       1       2       1       1       2       1       1       2       1       1
       2       1       1       2       1       1       2       1       1       2
       1       1       2       1       1       2       1       1       2       1
       1       2       1       1       2       1       1       2       1       1
       2       1       1       2       1       1       2       1       1       2
       1       1       2       1       1       2       1       1       2       1
       1       2       1       1       2       1       1       2       1       1
       2       1       1       2       1       1       2       1       1       2
       1       1       2       1       1       2       1       1       2       1
       1       2       1       1       2       1       1       2       1       1
       2       1       1       2       1       1       2       1       1       2
       1       1       2       1       1       2       1       1       2       1
       1       2       1       1       2       1       1       2       1       1
       2       1       1       2       1       1       2       1       1       2
       1       1       2       1       1       2       1       1       2       1
       1       2       1       1       2       1       1       2       1       1
       2       1       1       2       1       1       2       1       1       2
       1       1       2       1       1       2       1       1       2       1
       1       2       1       1       2       1       1       2       1       1
       2       1       1       2       1       1       2       1       1       2
       1       1       2       1       1       2       1       1       2       1
       1       2       1       1       2       1       1       2       1       1
       2       1       1       2       1       1       2       1       1       2
       1       1       2       1       1       2       1       1       2       1
       1       2       1       1       2       1       1       2       1       1
       2       1       1       2       1       1       2       1       1       2
       1       1       2       1       1       2       1       1       2       1
       1       2       1       1       2       1       1       2       1       1
       2       1       1       2       1       1       2       1       1       2
       1       1       2       1       1       2       1       1       2       1
       1       2       1       1       2       1       1       2       1       1
       2       1       1       2       1       1       2       1       1       2
       1       1       2       1       1       2       1       1       2       1
       1       2       1       1       2       1       1       2       1       1
       2       1       1       2       1       1       2       1       1       2
       1       1       2       1       1       2       1       1       2       1
       1       2       1       1       2       1       1       2       1       1
       2       1       1       2       1       1       2       1       1       2
       1       1       2       1       1       2       1       1       2       1
       1       2       1       1       2       1       1       2       1       1
       2       1       1       2       1       1       2       1       1       2
       1       1       2       1       1       2       1       1       2       1
       1       2       1       1       2       1       1       2       1       1
       2       1       1       2       1       1       2       1       1       2
       1       1       2       1       1       2       1       1       2       1
       1       2       1       1       2       1       1       2       1       1
       2       1       1       2       1       1       2       1       1       2
       1       1       2       1       1       2       1       1       2       1
       1       2       1       1       2       1       1       2       1       1
       2       1       1       2       1       1       2       1       1       2
       1       1       2       1       1       2       1       1       2       1
       1       2       1       1       2       1       1       2       1       1
       2       1       1       2       1       1       2       1       1       2
       1       1       2       1       1       2       1       1       2       1
       1       2       1       1       2       1       1       2       1       1
       2       1       1       2       1       1       2       1       1       2
       1       1       2       1       1       2       1       1       2       1
       1       2       1       1       2       1       1       2       1       1
       2       1       1       2       1       1       2       1       1       2
       1       1       2       1       1       2       1       1       2       1
       1       2       1       1       2       1       1       2       1       1
       2       1       1       2       1       1       2       1       1       2
       1       1       2       1       1       2       1       1       2       1
       1       2       1       1       2       1       1       2       1       1
       2       1       1       2       1       1       2       1       1       2
       1       1       2       1       1       2       1       1       2       1
       1       2       1       1       2       1       1       2       1       1
       2       1       1       2       1       1       2       1       1       2
       1       1       2       1       1       2       1       1       2       1
       1       2       1       1       2       1       1       2       1       1
       2       1       1       2       1       1       2       1       1       2
       1       1       2       1       1       2       1       1       2       1
       1       2       1       1       2       1       1       2       1       1
       2       1       1       2       1       1       2       1       1       2
       1       1       2       1       1       2       1       1       2       1
       1       2       1       1       2       1       1       2       1       1
       2       1       1       2       1       1       2       1       1       2
       1       1       2       1       1       2       1       1       2       1
       1       2       1       1       2       1       1       2       1       1
       2       1       1       2       1       1       2       1       1       2
       1       1       2       1       1       2       1       1       2       1
       1       2       1       1       2       1       1       2       1       1
       2       1       1       2       1       1       2       1       1       2
       1       1       2       1       1       2       1       1       2       1
       1       2       1       1       2       1       1       2       1       1
       2       1       1       2       1       1       2       1       1       2
       1       1       2       1       1       2       1       1       2       1
       1       2       1       1       2       1       1       2       1       1
       2       1       1       2       1       1       2       1       1       2
       1       1       2       1       1       2       1       1       2       1
       1       2       1       1       2       1       1       2       1       1
       2       1       1       2       1       1       2       1       1       2
       1       1       2       1       1       2       1       1       2       1
       1       2       1       1       2       1       1       2       1       1
       2       1       1       2       1       1       2       1       1       2
       1       1       2       1       1       2       1       1       2       1
       1       2       1       1       2       1       1       2       1       1
       2       1       1       2       1       1       2       1       1       2
       1       1       2       1       1       2       1       1       2       1
       1       2       1       1       2       1       1       2       1       1
       2       1       1       2       1       1       2       1       1       2
       1       1       2       1       1       2       1       1       2       1
       1       2       1       1       2       1       1       2       1       1
       2       1       1       2       1       1       2       1       1       2
       1       1       2       1       1       2       1       1       2       1
       1       2       1       1       2       1       1       2       1       1
       2       1       1       2       1       1       2       1       1       2
       1       1       2       1       1       2       1       1       2       1
       1       2       1       1       2       1       1       2       1       1
       2       1       1       2       1       1       2       1       1       2
       1       1       2       1       1       2       1       1       2       1
       1       2       1       1       2       1       1       2       1       1
       2       1       1       2       1       1       2       1       1       2
       1       1       2       1       1       2       1       1       2       1
       1       2       1       1       2       1       1       2       1       1
       2       1       1       2       1       1       2       1       1       2
       1       1       2       1       1       2       1       1       2       1
       1       2       1       1       2       1       1       2       1       1
       2       1       1       2       1       1       2       1       1       2
       1       1       2       1       1       2       1       1       2       1
       1       2       1       1       2       1       1       2       1       1
       2       1       1       2       1       1       2       1       1       2
       1       1       2       1       1       2       1       1       2       1
       1       2       1       1       2       1       1       2       1       1
       2       1       1       2       1       1       2       1       1       2
       1       1       2       1       1       2       1       1       2       1
       1       2       1       1       2       1       1       2       1       1
       2       1       1       2       1       1       2       1       1       2
       1       1       2       1       1       2       1       1       2       1
       1       2       1       1       2       1       1       2       1       1
       2       1       1       2       1       1       2       1       1       2
       1       1       2       1       1       2       1       1       2       1
       1       2       1       1       2       1       1       2       1       1
       2       1       1       2       1       1       2       1       1       2
       1       1       2       1       1       2       1       1       2       1
       1       2       1       1       2       1       1       2       1       1
       2       1       1       2       1       1       2       1       1       2
       1       1       2       1       1       2       1       1       2       1
       1       2       1       1       2       1       1       2       1       1
       2       1       1       2       1       1       2       1       1       2
       1       1       2       1       1       2       1       1       2       1
       1       2       1       1       2       1       1       2       1       1
       2       1       1       2       1       1       2       1       1       2
       1       1       2       1       1       2       1       1       2       1
       1       2       1       1       2       1       1       2       1       1
       2       1       1       2       1       1       2       1       1       2
       1       1       2       1       1       2       1       1       2       1
       1       2       1       1       2       1       1       2       1       1
       2       1       1       2       1       1       2       1       1       2
       1       1       2       1       1       2       1       1       2       1
       1       2       1       1       2       1       1       2       1       1
       2       1       1       2       1       1       2       1       1       2
       1       1       2       1       1       2       1       1       2       1
       1       2       1       1       2       1       1       2       1       1
       2       1       1       2       1       1       2       1       1       2
       1       1       2       1       1       2       1       1       2       1
       1       2       1       1       2       1       1       2       1       1
       2       1       1       2       1       1       2       1       1       2
       1       1       2       1       1       2       1       1       2       1
       1       2       1       1       2       1       1       2       1       1
       2       1       1       2       1       1       2       1       1       2
       1       1       2       1       1       2       1       1       2       1
       1       2       1       1       2       1       1       2       1       1
       2       1       1       2       1       1       2       1       1       2
       1       1       2       1       1       2       1       1       2       1
       1       2       1       1       2       1       1       2       1       1
       2       1       1       2       1       1       2       1       1       2
       1       1       2       1       1       2       1       1       2       1
       1       2       1       1       2       1       1       2       1       1
       2       1       1       2       1       1       2       1       1       2
       1       1       2       1       1       2       1       1       2       1
       1       2       1       1       2       1       1       2       1       1
       2       1       1       2       1       1       2       1       1       2
       1       1       2       1       1       2       1       1       2       1
       1       2       1       1       2       1       1       2       1       1
       2       1       1       2       1       1       2       1       1       2
       1       1       2       1       1       2       1       1       2       1
       1       2       1       1       2       1       1       2       1       1
       2       1       1       2       1       1       2       1       1       2
       1       1       2       1       1       2       1       1       2       1
       1       2       1       1       2       1       1       2       1       1
       2       1       1       2       1       1       2       1       1       2
       1       1       2       1       1       2       1       1       2       1
       1       2       1       1       2       1       1       2       1       1
       2       1       1       2       1       1       2       1       1       2
       1       1       2       1       1       2       1       1       2       1
       1       2       1       1       2       1       1       2       1       1
       2       1       1       2       1       1       2       1       1       2
       1       1       2       1       1       2       1       1       2       1
       1       2       1       1       2       1       1       2       1       1
       2       1       1       2       1       1       2       1       1       2
       1       1       2       1       1       2       1       1       2       1
       1       2       1       1       2       1       1       2       1       1
       2       1       1       2       1       1       2       1       1       2
       1       1       2       1       1       2       1       1       2       1
       1       2       1       1       2       1       1       2       1       1
       2       1       1       2       1       1       2       1       1       2
       1       1       2       1       1       2       1       1       2       1
       1       2       1       1       2       1       1       2       1       1
       2       1       1       2       1       1       2       1       1       2
       1       1       2       1       1       2       1       1       2       1
       1       2       1       1       2       1       1       2       1       1
       2       1       1       2       1       1       2       1       1       2
       1       1       2       1       1       2       1       1       2       1
       1       2       1       1       2       1       1       2       1       1
       2       1       1       2       1       1       2       1       1       2
       1       1       2       1       1       2       1       1       2       1
       1       2       1       1       2       1       1       2       1       1
       2       1       1       2       1       1       2       1       1       2
       1       1       2       1       1       2       1       1       2       1
       1       2       1       1       2       1       1       2       1       1
       2       1       1       2       1       1       2       1       1       2
       1       1       2       1       1       2       1       1       2       1
       1       2       1       1       2       1       1       2       1       1
       2       1       1       2       1       1       2       1       1       2
       1       1       2       1       1       2       1       1       2       1
       1       2       1       1       2       1       1       2       1       1
       2       1       1       2       1       1       2       1       1       2
       1       1       2       1       1       2       1       1       2       1
       1       2       1       1       2       1       1       2       1       1
       2       1       1       2       1       1       2       1       1       2
       1       1       2       1       1       2       1       1       2       1
       1       2       1       1       2       1       1       2       1       1
       2       1       1       2       1       1       2       1       1       2
       1       1       2       1       1       2       1       1       2       1
       1       2       1       1       2       1       1       2       1       1
       2       1       1       2       1       1       2       1       1       2
       1       1       2       1       1       2       1       1       2       1
       1       2       1       1       2       1       1       2       1       1
       2       1       1       2       1       1       2       1       1       2
       1       1       2       1       1       2       1       1       2       1
       1       2       1       1       2       1       1       2       1       1
       2       1       1       2       1       1       2       1       1       2
       1       1       2       1       1       2       1       1       2       1
       1       2       1       1       2       1       1       2       1       1
       2       1       1       2       1       1       2       1       1       2
       1       1       2       1       1       2       1       1       2       1
       1       2       1       1       2       1       1       2       1       1
       2       1       1       2       1       1       2       1       1       2
       1       1       2       1       1       2       1       1       2       1
       1       2       1       1       2       1       1       2       1       1
       2       1       1       2       1       1       2       1       1       2
       1       1       2       1       1       2       1       1       2       1
       1       2       1       1       2       1       1       2       1       1
       2       1       1       2       1       1       2       1       1       2
       1       1       2       1       1       2       1       1       2       1
       1       2       1       1       2       1       1       2       1       1
       2       1       1       2       1       1       2       1       1       2
       1       1       2       1       1       2       1       1       2       1
       1       2       1       1       2       1       1       2       1       1
       2       1       1       2       1       1       2       1       1       2
       1       1       2       1       1       2       1       1       2       1
       1       2       1       1       2       1       1       2       1       1
       2       1       1       2       1       1       2       1       1       2
       1       1       2       1       1       2       1       1       2       1
       1       2       1       1       2       1       1       2       1       1
       2       1       1       2       1       1       2       1       1       2
       1       1       2       1       1       2       1       1       2       1
       1       2       1       1       2       1       1       2       1       1
       2       1       1       2       1       1       2       1       1       2
       1       1       2       1       1       2       1       1       2       1
       1       2       1       1       2       1       1       2       1       1
       2       1       1       2       1       1       2       1       1       2
       1       1       2       1       1       2       1       1       2       1
       1       2       1       1       2       1       1       2       1       1
       2       1       1       2       1       1       2       1       1       2
       1       1       2       1       1       2       1       1       2       1
       1       2       1       1       2       1       1       2       1       1
       2       1       1       2       1       1       2       1       1       2
       1       1       2       1       1       2       1       1       2       1
       1       2       1       1       2       1       1       2       1       1
       2       1       1       2       1       1       2       1       1       2
       1       1       2       1       1       2       1       1       2       1
       1       2       1       1       2       1       1       2       1       1
       2       1       1       2       1       1       2       1       1       2
       1       1       2       1       1       2       1       1       2       1
       1       2       1       1       2       1       1       2       1       1
       2       1       1       2       1       1       2       1       1       2
       1       1       2       1       1       2       1       1       2       1
       1       2       1       1       2       1       1       2       1       1
       2       1       1       2       1       1       2       1       1       2
       1       1       2       1       1       2       1       1       2       1
       1       2       1       1       2       1       1       2       1       1
       2       1       1       2       1       1       2       1       1       2
       1       1       2       1       1       2       1       1       2       1
       1       2       1       1       2       1       1       2       1       1
       2       1       1       2       1       1       2       1       1       2
       1       1       2       1       1       2       1       1       2       1
       1       2       1       1       2       1       1       2       1       1
       2       1       1       2       1       1       2       1       1       2
       1       1       2       1       1       2       1       1       2       1
       1       2       1       1       2       1       1       2       1       1
       2       1       1       2       1       1       2       1       1       2
       1       1       2       1       1       2       1       1       2       1
       1       2       1       1       2       1       1       2       1       1
       2       1       1       2       1       1       2       1       1       2
       1       1       2       1       1       2       1       1       2       1
       1       2       1       1       2       1       1       2       1       1
       2       1       1       2       1       1       2       1       1       2
       1       1       2       1       1       2       1       1       2       1
       1       2       1       1       2       1       1       2       1       1
       2       1       1       2       1       1       2       1       1       2
       1       1       2       1       1       2       1       1       2       1
       1       2       1       1       2       1       1       2       1       1
       2       1       1       2       1       1       2       1       1       2
       1       1       2       1       1       2       1       1       2       1
       1       2       1       1       2       1       1       2       1       1
       2       1       1       2       1       1       2       1       1       2
       1       1       2       1       1       2       1       1       2       1
       1       2       1       1       2       1       1       2       1       1
       2       1       1       2       1       1       2       1       1       2
       1       1       2       1       1       2       1       1       2       1
       1       2       1       1       2       1       1       2       1       1
       2       1       1       2       1       1       2       1       1       2
       1       1       2       1       1       2       1       1       2       1
       1       2       1       1       2       1       1       2       1       1
       2       1       1       2       1       1       2       1       1       2
       1       1       2       1       1       2       1       1       2       1
       1       2       1       1       2       1       1       2       1       1
       2       1       1       2       1       1       2       1       1       2
       1       1       2       1       1       2       1       1       2       1
       1       2       1       1       2       1       1       2       1       1
       2       1       1       2       1       1       2       1       1       2
       1       1       2       1       1       2       1       1       2       1
       1       2       1       1       2       1       1       2       1       1
       2       1       1       2       1       1       2       1       1       2
       1       1       2       1       1       2       1       1       2       1
       1       2       1       1       2       1       1       2       1       1
       2       1       1       2       1       1       2       1       1       2
       1       1       2       1       1       2       1       1       2       1
       1       2       1       1       2       1       1       2       1       1
       2       1       1       2       1       1       2       1       1       2
       1       1       2       1       1       2       1       1       2       1
       1       2       1       1       2       1       1       2       1       1
       2       1       1       2       1       1       2       1       1       2
       1       1       2       1       1       2       1       1       2       1
       1       2       1       1       2       1       1       2       1       1
       2       1       1       2       1       1       2       1       1       2
       1       1       2       1       1       2       1       1       2       1
       1       2       1       1       2       1       1       2       1       1
       2       1       1       2       1       1       2       1       1       2
       1       1       2       1       1       2       1       1       2       1
       1       2       1       1       2       1       1       2       1       1
       2       1       1       2       1       1       2       1       1       2
       1       1       2       1       1       2       1       1       2       1
       1       2       1       1       2       1       1       2       1       1
       2       1       1       2       1       1       2       1       1       2
       1       1       2       1       1       2       1       1       2       1
       1       2       1       1       2       1       1       2       1       1
       2       1       1       2       1       1       2       1       1       2
       1       1       2       1       1       2       1       1       2       1
       1       2       1       1       2       1       1       2       1       1
       2       1       1       2       1       1       2       1       1       2
       1       1       2       1       1       2       1       1       2       1
       1       2       1       1       2       1       1       2       1       1
       2       1       1       2       1       1       2       1       1       2
       1       1       2       1       1       2       1       1       2       1
       1       2       1       1       2       1       1       2       1       1
       2       1       1       2       1       1       2       1       1       2
       1       1       2       1       1       2       1       1       2       1
       1       2       1       1       2       1       1       2       1       1
       2       1       1       2       1       1       2       1       1       2
       1       1       2       1       1       2       1       1       2       1
       1       2       1       1       2       1       1       2       1       1
       2       1       1       2       1       1       2       1       1       2
       1       1       2       1       1       2       1       1       2       1
       1       2       1       1       2       1       1       2       1       1
       2       1       1       2       1       1       2       1       1       2
       1       1       2       1       1       2       1       1       2       1
       1       2       1       1       2       1       1       2       1       1
       2       1       1       2       1       1       2       1       1       2
       1       1       2       1       1       2       1       1       2       1
       1       2       1       1       2       1       1       2       1       1
       2       1       1       2       1       1       2       1       1       2
       1       1       2       1       1       2       1       1       2       1
       1       2       1       1       2       1       1       2       1       1
       2       1       1       2       1       1       2       1       1       2
       1       1       2       1       1       2       1       1       2       1
       1       2       1       1       2       1       1       2       1       1
       2       1       1       2       1       1       2       1       1       2
       1       1       2       1       1       2       1       1       2       1
       1       2       1       1       2       1       1       2       1       1
       2       1       1       2       1       1       2       1       1       2
       1       1       2       1       1       2       1       1       2       1
       1       2       1       1       2       1       1       2       1       1
       2       1       1       2       1       1       2       1       1       2
       1       1       2       1       1       2       1       1       2       1
       1       2       1       1       2       1       1       2       1       1
       2       1       1       2       1       1       2       1       1       2
       1       1       2       1       1       2       1       1       2       1
       1       2       1       1       2       1       1       2       1       1
       2       1       1       2       1       1       2       1       1       2
       1       1       2       1       1       2       1       1       2       1
       1       2       1       1       2       1       1       2       1       1
       2       1       1       2       1       1       2       1       1       2
       1       1       2       1       1       2       1       1       2       1
       1       2       1       1       2       1       1       2       1       1
       2       1       1       2       1       1       2       1       1       2
       1       1       2       1       1       2       1       1       2       1
       1       2       1       1       2       1       1       2       1       1
       2       1       1       2       1       1       2       1       1       2
       1       1       2       1       1       2       1       1       2       1
       1       2       1       1       2       1       1       2       1       1
       2       1       1       2       1       1       2       1       1       2
       1       1       2       1       1       2       1       1       2       1
       1       2       1       1       2       1       1       2       1       1
       2       1       1       2       1       1       2       1       1       2
       1       1       2       1       1       2       1       1       2       1
       1       2       1       1       2       1       1       2       1       1
       2       1       1       2       1       1       2       1       1       2
       1       1       2       1       1       2       1       1       2       1
       1       2       1       1       2       1       1       2       1       1
       2       1       1       2       1       1       2       1       1       2
       1       1       2       1       1       2       1       1       2       1
       1       2       1       1       2       1       1       2       1       1
       2       1       1       2       1       1       2       1       1       2
       1       1       2       1       1       2       1       1       2       1
       1       2       1       1       2       1       1       2       1       1
       2       1       1       2       1       1       2       1       1       2
       1       1       2       1       1       2       1       1       2       1
       1       2       1       1       2       1       1       2       1       1
       2       1       1       2       1       1       2       1       1       2
       1       1       2       1       1       2       1       1       2       1
       1       2       1       1       2       1       1       2       1       1
       2       1       1       2       1       1       2       1       1       2
       1       1       2       1       1       2       1       1       2       1
       1       2       1       1       2       1       1       2       1       1
       2       1       1       2       1       1       2       1       1       2
       1       1       2       1       1       2       1       1       2       1
       1       2       1       1       2       1       1       2       1       1
       2       1       1       2       1       1       2       1       1       2
       1       1       2       1       1       2       1       1       2       1
       1       2       1       1       2       1       1       2       1       1
       2       1       1       2       1       1       2       1       1       2
       1       1       2       1       1       2       1       1       2       1
       1       2       1       1       2       1       1       2       1       1
       2       1       1       2       1       1       2       1       1       2
       1       1       2       1       1       2       1       1       2       1
       1       2       1       1       2       1       1       2       1       1
       2       1       1       2       1       1       2       1       1       2
       1       1       2       1       1       2       1       1       2       1
       1       2       1       1       2       1       1       2       1       1
       2       1       1       2       1       1       2       1       1       2
       1       1       2       1       1       2       1       1       2       1
       1       2       1       1       2       1       1       2       1       1
       2       1       1       2       1       1       2       1       1       2
       1       1       2       1       1       2       1       1       2       1
       1       2       1       1       2       1       1       2       1       1
       2       1       1       2       1       1       2       1       1       2
       1       1       2       1       1       2       1       1       2       1
       1       2       1       1       2       1       1       2       1       1
       2       1       1       2       1       1       2       1       1       2
       1       1       2       1       1       2       1       1       2       1
       1       2       1       1       2       1       1       2       1       1
       2       1       1       2       1       1       2       1       1       2
       1       1       2       1       1       2       1       1       2       1
       1       2       1       1       2       1       1       2       1       1
       2       1       1       2       1       1       2       1       1       2
       1       1       2       1       1       2       1       1       2       1
       1       2       1       1       2       1       1       2       1       1
       2       1       1       2       1       1       2       1       1       2
       1       1       2       1       1       2       1       1       2       1
       1       2       1       1       2       1       1       2       1       1
       2       1       1       2       1       1       2       1       1       2
       1       1       2       1       1       2       1       1       2       1
       1       2       1       1       2       1       1       2       1       1
       2       1       1       2       1       1       2       1       1       2
       1       1       2       1       1       2       1       1       2       1
       1       2       1       1       2       1       1       2       1       1
       2       1       1       2       1       1       2       1       1       2
       1       1       2       1       1       2       1       1       2       1
       1       2       1       1       2       1       1       2       1       1
       2       1       1       2       1       1       2       1       1       2
       1       1       2       1       1       2       1       1       2       1
       1       2       1       1       2       1       1       2       1       1
       2       1       1       2       1       1       2       1       1       2
       1       1       2       1       1       2       1       1       2       1
       1       2       1       1       2       1       1       2       1       1
       2       1       1       2       1       1       2       1       1       2
       1       1       2       1       1       2       1       1       2       1
       1       2       1       1       2       1       1       2       1       1
       2       1       1       2       1       1       2       1       1       2
       1       1       2       1       1       2       1       1       2       1
       1       2       1       1       2       1       1       2       1       1
       2       1       1       2       1       1       2       1       1       2
       1       1       2       1       1       2       1       1       2       1
       1       2       1       1       2       1       1       2       1       1
       2       1       1       2       1       1       2       1       1       2
       1       1       2       1       1       2       1       1       2       1
       1       2       1       1       2       1       1       2       1       1
       2       1       1       2       1       1       2       1       1       2
       1       1       2       1       1       2       1       1       2       1
       1       2       1       1       2       1       1       2       1       1
       2       1       1       2       1       1       2       1       1       2
       1       1       2       1       1       2       1       1       2       1
       1       2       1       1       2       1       1       2       1       1
       2       1       1       2       1       1       2       1       1       2
       1       1       2       1       1       2       1       1       2       1
       1       2       1       1       2       1       1       2       1       1
       2       1       1       2       1       1       2       1       1       2
       1       1       2       1       1       2       1       1       2       1
       1       2       1       1       2       1       1       2       1       1
       2       1       1       2       1       1       2       1       1       2
       1       1       2       1       1       2       1       1       2       1
       1       2       1       1       2       1       1       2       1       1
       2       1       1       2       1       1       2       1       1       2
       1       1       2       1       1       2       1       1       2       1
       1       2       1       1       2       1       1       2       1       1
       2       1       1       2       1       1       2       1       1       2
       1       1       2       1       1       2       1       1       2       1
       1       2       1       1       2       1       1       2       1       1
       2       1       1       2       1       1       2       1       1       2
       1       1       2       1       1       2       1       1       2       1
       1       2       1       1       2       1       1       2       1       1
       2       1       1       2       1       1       2       1       1       2
       1       1       2       1       1       2       1       1       2       1
       1       2       1       1       2       1       1       2       1       1
       2       1       1       2       1       1       2       1       1       2
       1       1       2       1       1       2       1       1       2       1
       1       2       1       1       2       1       1       2       1       1
       2       1       1       2       1       1       2       1       1       2
       1       1       2       1       1       2       1       1       2       1
       1       2       1       1       2       1       1       2       1       1
       2       1       1       2       1       1       2       1       1       2
       1       1       2       1       1       2       1       1       2       1
       1       2       1       1       2       1       1       2       1       1
       2       1       1       2       1       1       2       1       1       2
       1       1       2       1       1       2       1       1       2       1
       1       2       1       1       2       1       1       2       1       1
       2       1       1       2       1       1       2       1       1       2
       1       1       2       1       1       2       1       1       2       1
       1       2       1       1       2       1       1       2       1       1
       2       1       1       2       1       1       2       1       1       2
       1       1       2       1       1       2       1       1       2       1
       1       2       1       1       2       1       1       2       1       1
       2       1       1       2       1       1       2       1       1       2
       1       1       2       1       1       2       1       1       2       1
       1       2       1       1       2       1       1       2       1       1
       2       1       1       2       1       1       2       1       1       2
       1       1       2       1       1       2       1       1       2       1
       1       2       1       1       2       1       1       2       1       1
       2       1       1       2       1       1       2       1       1       2
       1       1       2       1       1       2       1       1       2       1
       1       2       1       1       2       1       1       2       1       1
       2       1       1       2       1       1       2       1       1       2
       1       1       2       1       1       2       1       1       2       1
       1       2       1       1       2       1       1       2       1       1
       2       1       1       2       1       1       2       1       1       2
       1       1       2       1       1       2       1       1       2       1
       1       2       1       1       2       1       1       2       1       1
       2       1       1       2       1       1       2       1       1       2
       1       1       2       1       1       2       1       1       2       1
       1       2       1       1       2       1       1       2       1       1
       2       1       1       2       1       1       2       1       1       2
       1       1       2       1       1       2       1       1       2       1
       1       2       1       1       2       1       1       2       1       1
       2       1       1       2       1       1       2       1       1       2
       1       1       2       1       1       2       1       1       2       1
       1       2       1       1       2       1       1       2       1       1
       2       1       1       2       1       1       2       1       1       2
       1       1       2       1       1       2       1       1       2       1
       1       2       1       1       2       1       1       2       1       1
       2       1       1       2       1       1       2       1       1       2
       1       1       2       1       1       2       1       1       2       1
       1       2       1       1       2       1       1       2       1       1
       2       1       1       2       1       1       2       1       1       2
       1       1       2       1       1       2       1       1       2       1
       1       2       1       1       2       1       1       2       1       1
       2       1       1       2       1       1       2       1       1       2
       1       1       2       1       1       2       1       1       2       1
       1       2       1       1       2       1       1       2       1       1
       2       1       1       2       1       1       2       1       1       2
       1       1       2       1       1       2       1       1       2       1
       1       2       1       1       2       1       1       2       1       1
       2       1       1       2       1       1       2       1       1       2
       1       1       2       1       1       2       1       1       2       1
       1       2       1       1       2       1       1       2       1       1
       2       1       1       2       1       1       2       1       1       2
       1       1       2       1       1       2       1       1       2       1
       1       2       1       1       2       1       1       2       1       1
       2       1       1       2       1       1       2       1       1       2
       1       1       2       1       1       2       1       1       2       1
       1       2       1       1       2       1       1       2       1       1
       2       1       1       2       1       1       2       1       1       2
       1       1       2       1       1       2       1       1       2       1
       1       2       1       1       2       1       1       2       1       1
       2       1       1       2       1       1       2       1       1       2
       1       1       2       1       1       2       1       1       2       1
       1       2       1       1       2       1       1       2       1       1
       2       1       1       2       1       1       2       1       1       2
       1       1       2       1       1       2       1       1       2       1
       1       2       1       1       2       1       1       2       1       1
       2       1       1       2       1       1       2       1       1       2
       1       1       2       1       1       2       1       1       2       1
       1       2       1       1       2       1       1       2       1       1
       2       1       1       2       1       1       2       1       1       2
       1       1       2       1       1       2       1       1       2       1
       1       2       1       1       2       1       1       2       1       1
       2       1       1       2       1       1       2       1       1       2
       1       1       2       1       1       2       1       1       2       1
       1       2       1       1       2       1       1       2       1       1
       2       1       1       2       1       1       2       1       1       2
       1       1       2       1       1       2       1       1       2       1
       1       2       1       1       2       1       1       2       1       1
       2       1       1       2       1       1       2       1       1       2
       1       1       2       1       1       2       1       1       2       1
       1       2       1       1       2       1       1       2       1       1
       2       1       1       2       1       1       2       1       1       2
       1       1       2       1       1       2       1       1       2       1
       1       2       1       1       2       1       1       2       1       1
       2       1       1       2       1       1       2       1       1       2
       1       1       2       1       1       2       1       1       2       1
       1       2       1       1       2       1       1       2       1       1
       2       1       1       2       1       1       2       1       1       2
       1       1       2       1       1       2       1       1       2       1
       1       2       1       1       2       1       1       2       1       1
       2       1       1       2       1       1       2       1       1       2
       1       1       2       1       1       2       1       1       2       1
       1       2       1       1       2       1       1       2       1       1
       2       1       1       2       1       1       2       1       1       2
       1       1       2       1       1       2       1       1       2       1
       1       2       1       1       2       1       1       2       1       1
       2       1       1       2       1       1       2       1       1       2
       1       1       2       1       1       2       1       1       2       1
       1       2       1       1       2       1       1       2       1       1
       2       1       1       2       1       1       2       1       1       2
       1       1       2       1       1       2       1       1       2       1
       1       2       1       1       2       1       1       2       1       1
       2       1       1       2       1       1       2       1       1       2
       1       1       2       1       1       2       1       1       2       1
       1       2       1       1       2       1       1       2       1       1
       2       1       1       2       1       1       2       1       1       2
       1       1       2       1       1       2       1       1       2       1
       1       2       1       1       2       1       1       2       1       1
       2       1       1       2       1       1       2       1       1       2
       1       1       2       1       1       2       1       1       2       1
       1       2       1       1       2       1       1       2       1       1
       2       1       1       2       1       1       2       1       1       2
       1       1       2       1       1       2       1       1       2       1
       1       2       1       1       2       1       1       2       1       1
       2       1       1       2       1       1       2       1       1       2
       1       1       2       1       1       2       1       1       2       1
       1       2       1       1       2       1       1       2       1       1
       2       1       1       2       1       1       2       1       1       2
       1       1       2       1       1       2       1       1       2       1
       1       2       1       1       2       1       1       2       1       1
       2       1       1       2       1       1       2       1       1       2
       1       1       2       1       1       2       1       1       2       1
       1       2       1       1       2       1       1       2       1       1
       2       1       1       2       1       1       2       1       1       2
       1       1       2       1       1       2       1       1       2       1
       1       2       1       1       2       1       1       2       1       1
       2       1       1       2       1       1       2       1       1       2
       1       1       2       1       1       2       1       1       2       1
       1       2       1       1       2       1       1       2       1       1
       2       1       1       2       1       1       2       1       1       2
       1       1       2       1       1       2       1       1       2       1
       1       2       1       1       2       1       1       2       1       1
       2       1       1       2       1       1       2       1       1       2
       1       1       2       1       1       2       1       1       2       1
       1       2       1       1       2       1       1       2       1       1
       2       1       1       2       1       1       2       1       1       2
       1       1       2       1       1       2       1       1       2       1
       1       2       1       1       2       1       1       2       1       1
       2       1       1       2       1       1       2       1       1       2
       1       1       2       1       1       2       1       1       2       1
       1       2       1       1       2       1       1       2       1       1
       2       1       1       2       1       1       2       1       1       2
       1       1       2       1       1       2       1       1       2       1
       1       2       1       1       2       1       1       2       1       1
       2       1       1       2       1       1       2       1       1       2
       1       1       2       1       1       2       1       1       2       1
       1       2       1       1       2       1       1       2       1       1
       2       1       1       2       1       1       2       1       1       2
       1       1       2       1       1       2       1       1       2       1
       1       2       1       1       2       1       1       2       1       1
       2       1       1       2       1       1       2       1       1       2
       1       1       2       1       1       2       1       1       2       1
       1       2       1       1       2       1       1       2       1       1
       2       1       1       2       1       1       2       1       1       2
       1       1       2       1       1       2       1       1       2       1
       1       2       1       1       2       1       1       2       1       1
       2       1       1       2       1       1       2       1       1       2
       1       1       2       1       1       2       1       1       2       1
       1       2       1       1       2       1       1       2       1       1
       2       1       1       2       1       1       2       1       1       2
       1       1       2       1       1       2       1       1       2       1
       1       2       1       1       2       1       1       2       1       1
       2       1       1       2       1       1       2       1       1       2
       1       1       2       1       1       2       1       1       2       1
       1       2       1       1       2       1       1       2       1       1
       2       1       1       2       1       1       2       1       1       2
       1       1       2       1       1       2       1       1       2       1
       1       2       1       1       2       1       1       2       1       1
       2       1       1       2       1       1       2       1       1       2
       1       1       2       1       1       2       1       1       2       1
       1       2       1       1       2       1       1       2       1       1
       2       1       1       2       1       1       2       1       1       2
       1       1       2       1       1       2       1       1       2       1
       1       2       1       1       2       1       1       2       1       1
       2       1       1       2       1       1       2       1       1       2
       1       1       2       1       1       2       1       1       2       1
       1       2       1       1       2       1       1       2       1       1
       2       1       1       2       1       1       2       1       1       2
       1       1       2       1       1       2       1       1       2       1
       1       2       1       1       2       1       1       2       1       1
       2       1       1       2       1       1       2       1       1       2
       1       1       2       1       1       2       1       1       2       1
       1       2       1       1       2       1       1       2       1       1
       2       1       1       2       1       1       2       1       1       2
       1       1       2       1       1       2       1       1       2       1
       1       2       1       1       2       1       1       2       1       1
       2       1       1       2       1       1       2       1       1       2
       1       1       2       1       1       2       1       1       2       1
       1       2       1       1       2       1       1       2       1       1
       2       1       1       2       1       1       2       1       1       2
       1       1       2       1       1       2       1       1       2       1
       1       2       1       1       2       1       1       2       1       1
       2       1       1       2       1       1       2       1       1       2
       1       1       2       1       1       2       1       1       2       1
       1       2       1       1       2       1       1       2       1       1
       2       1       1       2       1       1       2       1       1       2
       1       1       2       1       1       2       1       1       2       1
       1       2       1       1       2       1       1       2       1       1
       2       1       1       2       1       1       2       1       1       2
       1       1       2       1       1       2       1       1       2       1
       1       2       1       1       2       1       1       2       1       1
       2       1       1       2       1       1       2       1       1       2
       1       1       2       1       1       2       1       1       2       1
       1       2       1       1       2       1       1       2       1       1
       2       1       1       2       1       1       2       1       1       2
       1       1       2       1       1       2       1       1       2       1
       1       2       1       1       2       1       1       2       1       1
       2       1       1       2       1       1       2       1       1       2
       1       1       2       1       1       2       1       1       2       1
       1       2       1       1       2       1       1       2       1       1
       2       1       1       2       1       1       2       1       1       2
       1       1       2       1       1       2       1       1       2       1
       1       2       1       1       2       1       1       2       1       1
       2       1       1       2       1       1       2       1       1       2
       1       1       2       1       1       2       1       1       2       1
       1       2       1       1       2       1       1       2       1       1
       2       1       1       2       1       1       2       1       1       2
       1       1       2       1       1       2       1       1       2       1
       1       2       1       1       2       1       1       2       1       1
       2       1       1       2       1       1       2       1       1       2
       1       1       2       1       1       2       1       1       2       1
       1       2       1       1       2       1       1       2       1       1
       2       1       1       2       1       1       2       1       1       2
       1       1       2       1       1       2       1       1       2       1
       1       2       1       1       2       1       1       2       1       1
       2       1       1       2       1       1       2       1       1       2
       1       1       2       1       1       2       1       1       2       1
       1       2       1       1       2       1       1       2       1       1
       2       1       1       2       1       1       2       1       1       2
       1       1       2       1       1       2       1       1       2       1
       1       2       1       1       2       1       1       2       1       1
       2       1       1       2       1       1       2       1       1       2
       1       1       2       1       1       2       1       1       2       1
       1       2       1       1       2       1       1       2       1       1
       2       1       1       2       1       1       2       1       1       2
       1       1       2       1       1       2       1       1       2       1
       1       2       1       1       2       1       1       2       1       1
       2       1       1       2       1       1       2       1       1       2
       1       1       2       1       1       2       1       1       2       1
       1       2       1       1       2       1       1       2       1       1
       2       1       1       2       1       1       2       1       1       2
       1       1       2       1       1       2       1       1       2       1
       1       2       1       1       2       1       1       2       1       1
       2       1       1       2       1       1       2       1       1       2
       1       1       2       1       1       2       1       1       2       1
       1       2       1       1       2       1       1       2       1       1
       2       1       1       2       1       1       2       1       1       2
       1       1       2       1       1       2       1       1       2       1
       1       2       1       1       2       1       1       2       1       1
       2       1       1       2       1       1       2       1       1       2
       1       1       2       1       1       2       1       1       2       1
       1       2       1       1       2       1       1       2       1       1
       2       1       1       2       1       1       2       1       1       2
       1       1       2       1       1       2       1       1       2       1
       1       2       1       1       2       1       1       2       1       1
       2       1       1       2       1       1       2       1       1       2
       1       1       2       1       1       2       1       1       2       1
       1       2       1       1       2       1       1       2       1       1
       2       1       1       2       1       1       2       1       1       2
       1       1       2       1       1       2       1       1       2       1
       1       2       1       1       2       1       1       2       1       1
       2       1       1       2       1       1       2       1       1       2
       1       1       2       1       1       2       1       1       2       1
       1       2       1       1       2       1       1       2       1       1
       2       1       1       2       1       1       2       1       1       2
       1       1       2       1       1       2       1       1       2       1
       1       2       1       1       2       1       1       2       1       1
       2       1       1       2       1       1       2       1       1       2
       1       1       2       1       1       2       1       1       2       1
       1       2       1       1       2       1       1       2       1       1
       2       1       1       2       1       1       2       1       1       2
       1       1       2       1       1       2       1       1       2       1
       1       2       1       1       2       1       1       2       1       1
       2       1       1       2       1       1       2       1       1       2
       1       1       2       1       1       2       1       1       2       1
       1       2       1       1       2       1       1       2       1       1
       2       1       1       2       1       1       2       1       1       2
       1       1       2       1       1       2       1       1       2       1
       1       2       1       1       2       1       1       2       1       1
       2       1       1       2       1       1       2       1       1       2
       1       1       2       1       1       2       1       1       2       1
       1       2       1       1       2       1       1       2       1       1
       2       1       1       2       1       1       2       1       1       2
       1       1       2       1       1       2       1       1       2       1
       1       2       1       1       2       1       1       2       1       1
       2       1       1       2       1       1       2       1       1       2
       1       1       2       1       1       2       1       1       2       1
       1       2       1       1       2       1       1       2       1       1
       2       1       1       2       1       1       2       1       1       2
       1       1       2       1       1       2       1       1       2       1
       1       2       1       1       2       1       1       2       1       1
       2       1       1       2       1       1       2       1       1       2
       1       1       2       1       1       2       1       1       2       1
       1       2       1       1       2       1       1       2       1       1
       2       1       1       2       1       1       2       1       1       2
       1       1       2       1       1       2       1       1       2       1
       1       2       1       1       2       1       1       2       1       1
       2       1       1       2       1       1       2       1       1       2
       1       1       2       1       1       2       1       1       2       1
       1       2       1       1       2       1       1       2       1       1
       2       1       1       2       1       1       2       1       1       2
       1       1       2       1       1       2       1       1       2       1
       1       2       1       1       2       1       1       2       1       1
       2       1       1       2       1       1       2       1       1       2
       1       1       2       1       1       2       1       1       2       1
       1       2       1       1       2       1       1       2       1       1
       2       1       1       2       1       1       2       1       1       2
       1       1       2       1       1       2       1       1       2       1
       1       2       1       1       2       1       1       2       1       1
       2       1       1       2       1       1       2       1       1       2
       1       1       2       1       1       2       1       1       2       1
       1       2       1       1       2       1       1       2       1       1
       2       1       1       2       1       1       2       1       1       2
       1       1       2       1       1       2       1       1       2       1
       1       2       1       1       2       1       1       2       1       1
       2       1       1       2       1       1       2       1       1       2
       1       1       2       1       1       2       1       1       2       1
       1       2       1       1       2       1       1       2       1       1
       2       1       1       2       1       1       2       1       1       2
       1       1       2       1       1       2       1       1       2       1
       1       2       1       1       2       1       1       2       1       1
       2       1       1       2       1       1       2       1       1       2
       1       1       2       1       1       2       1       1       2       1
       1       2       1       1       2       1       1       2       1       1
       2       1       1       2       1       1       2       1       1       2
       1       1       2       1       1       2       1       1       2       1
       1       2       1       1       2       1       1       2       1       1
       2       1       1       2       1       1       2       1       1       2
       1       1       2       1       1       2       1       1       2       1
       1       2       1       1       2       1       1       2       1       1
       2       1       1       2       1       1       2       1       1       2
       1       1       2       1       1       2       1       1       2       1
       1       2       1       1       2       1       1       2       1       1
       2       1       1       2       1       1       2       1       1       2
       1       1       2       1       1       2       1       1       2       1
       1       2       1       1       2       1       1       2       1       1
       2       1       1       2       1       1       2       1       1       2
       1       1       2       1       1       2       1       1       2       1
       1       2       1       1       2       1       1       2       1       1
       2       1       1       2       1       1       2       1       1       2
       1       1       2       1       1       2       1       1       2       1
       1       2       1       1       2       1       1       2       1       1
       2       1       1       2       1       1       2       1       1       2
       1       1       2       1       1       2       1       1       2       1
       1       2       1       1       2       1       1       2       1       1
       2       1       1       2       1       1       2       1       1       2
       1       1       2       1       1       2       1       1       2       1
       1       2       1       1       2       1       1       2       1       1
       2       1       1       2       1       1       2       1       1       2
       1       1       2       1       1       2       1       1       2       1
       1       2       1       1       2       1       1       2       1       1
       2       1       1       2       1       1       2       1       1       2
       1       1       2       1       1       2       1       1       2       1
       1       2       1       1       2       1       1       2       1       1
       2       1       1       2       1       1       2       1       1       2
       1       1       2       1       1       2       1       1       2       1
       1       2       1       1       2       1       1       2       1       1
       2       1       1       2       1       1       2       1       1       2
       1       1       2       1       1       2       1       1       2       1
       1       2       1       1       2       1       1       2       1       1
       2       1       1       2       1       1       2       1       1       2
       1       1       2       1       1       2       1       1       2       1
       1       2       1       1       2       1       1       2       1       1
       2       1       1       2       1       1       2       1       1       2
       1       1       2       1       1       2       1       1       2       1
       1       2       1       1       2       1       1       2       1       1
       2       1       1       2       1       1       2       1       1       2
       1       1       2       1       1       2       1       1       2       1
       1       2       1       1       2       1       1       2       1       1
       2       1       1       2       1       1       2       1       1       2
       1       1       2       1       1       2       1       1       2       1
       1       2       1       1       2       1       1       2       1       1
       2       1       1       2       1       1       2       1       1       2
       1       1       2       1       1       2       1       1       2       1
       1       2       1       1       2       1       1       2       1       1
       2       1       1       2       1       1       2       1       1       2
       1       1       2       1       1       2       1       1       2       1
       1       2       1       1       2       1       1       2       1       1
       2       1       1       2       1       1       2       1       1       2
       1       1       2       1       1       2       1       1       2       1
       1       2       1       1       2       1       1       2       1       1
       2       1       1       2       1       1       2       1       1       2
       1       1       2       1       1       2       1       1       2       1
       1       2       1       1       2       1       1       2       1       1
       2       1       1       2       1       1       2       1       1       2
       1       1       2       1       1       2       1       1       2       1
       1       2       1       1       2       1       1       2       1       1
       2       1       1       2       1       1       2       1       1       2
       1       1       2       1       1       2       1       1       2       1
       1       2       1       1       2       1       1       2       1       1
       2       1       1       2       1       1       2       1       1       2
       1       1       2       1       1       2       1       1       2       1
       1       2       1       1       2       1       1       2       1       1
       2       1       1       2       1       1       2       1       1       2
       1       1       2       1       1       2       1       1       2       1
       1       2       1       1       2       1       1       2       1       1
       2       1       1       2       1       1       2       1       1       2
       1       1       2       1       1       2       1       1       2       1
       1       2       1       1       2       1       1       2       1       1
       2       1       1       2       1       1       2       1       1       2
       1       1       2       1       1       2       1       1       2       1
       1       2       1       1       2       1       1       2       1       1
       2       1       1       2       1       1       2       1       1       2
       1       1       2       1       1       2       1       1       2       1
       1       2       1       1       2       1       1       2       1       1
       2       1       1       2       1       1       2       1       1       2
       1       1       2       1       1       2       1       1       2       1
       1       2       1       1       2       1       1       2       1       1
       2       1       1       2       1       1       2       1       1       2
       1       1       2       1       1       2       1       1       2       1
       1       2       1       1       2       1       1       2       1       1
       2       1       1       2       1       1       2       1       1       2
       1       1       2       1       1       2       1       1       2       1
       1       2       1       1       2       1       1       2       1       1
       2       1       1       2       1       1       2       1       1       2
       1       1       2       1       1       2       1       1       2       1
       1       2       1       1       2       1       1       2       1       1
       2       1       1       2       1       1       2       1       1       2
       1       1       2       1       1       2       1       1       2       1
       1       2       1       1       2       1       1       2       1       1
       2       1       1       2       1       1       2       1       1       2
       1       1       2       1       1       2       1       1       2       1
       1       2       1       1       2       1       1       2       1       1
       2       1       1       2       1       1       2       1       1       2
       1       1       2       1       1       2       1       1       2       1
       1       2       1       1       2       1       1       2       1       1
       2       1       1       2       1       1       2       1       1       2
       1       1       2       1       1       2       1       1       2       1
       1       2       1       1       2       1       1       2       1       1
       2       1       1       2       1       1       2       1       1       2
       1       1       2       1       1       2       1       1       2       1
       1       2       1       1       2       1       1       2       1       1
       2       1       1       2       1       1       2       1       1       2
       1       1       2       1       1       2       1       1       2       1
       1       2       1       1       2       1       1       2       1       1
       2       1       1       2       1       1       2       1       1       2
       1       1       2       1       1       2       1       1       2       1
       1       2       1       1       2       1       1       2       1       1
       2       1       1       2       1       1       2       1       1       2
       1       1       2       1       1       2       1       1       2       1
       1       2       1       1       2       1       1       2       1       1
       2       1       1       2       1       1       2       1       1       2
       1       1       2       1       1       2       1       1       2       1
       1       2       1       1       2       1       1       2       1       1
       2       1       1       2       1       1       2       1       1       2
       1       1       2       1       1       2       1       1       2       1
       1       2       1       1       2       1       1       2       1       1
       2       1       1       2       1       1       2       1       1       2
       1       1       2       1       1       2       1       1       2       1
       1       2       1       1       2       1       1       2       1       1
       2       1       1       2       1       1       2       1       1       2
       1       1       2       1       1       2       1       1       2       1
       1       2       1       1       2       1       1       2       1       1
       2       1       1       2       1       1       2       1       1       2
       1       1       2       1       1       2       1       1       2       1
       1       2       1       1       2       1       1       2       1       1
       2       1       1       2       1       1       2       1       1       2
       1       1       2       1       1       2       1       1       2       1
       1       2       1       1       2       1       1       2       1       1
       2       1       1       2       1       1       2       1       1       2
       1       1       2       1       1       2       1       1       2       1
       1       2       1       1       2       1       1       2       1       1
       2       1       1       2       1       1       2       1       1       2
       1       1       2       1       1       2       1       1       2       1
       1       2       1       1       2       1       1       2       1       1
       2       1       1       2       1       1       2       1       1       2
       1       1       2       1       1       2       1       1       2       1
       1       2       1       1       2       1       1       2       1       1
       2       1       1       2       1       1       2       1       1       2
       1       1       2       1       1       2       1       1       2       1
       1       2       1       1       2       1       1       2       1       1
       2       1       1       2       1       1       2       1       1       2
       1       1       2       1       1       2       1       1       2       1
       1       2       1       1       2       1       1       2       1       1
       2       1       1       2       1       1       2       1       1       2
       1       1       2       1       1       2       1       1       2       1
       1       2       1       1       2       1       1       2       1       1
       2       1       1       2       1       1       2       1       1       2
       1       1       2       1       1       2       1       1       2       1
       1       2       1       1       2       1       1       2       1       1
       2       1       1       2       1       1       2       1       1       2
       1       1       2       1       1       2       1       1       2       1
       1       2       1       1       2       1       1       2       1       1
       2       1       1       2       1       1       2       1       1       2
       1       1       2       1       1       2       1       1       2       1
       1       2       1       1       2       1       1       2       1       1
       2       1       1       2       1       1       2       1       1       2
       1       1       2       1       1       2       1       1       2       1
       1       2       1       1       2       1       1       2       1       1
       2       1       1       2       1       1       2       1       1       2
       1       1       2       1       1       2       1       1       2       1
       1       2       1       1       2       1       1       2       1       1
       2       1       1       2       1       1       2       1       1       2
       1       1       2       1       1       2       1       1       2       1
       1       2       1       1       2       1       1       2       1       1
       2       1       1       2       1       1       2       1       1       2
       1       1       2       1       1       2       1       1       2       1
       1       2       1       1       2       1       1       2       1       1
       2       1       1       2       1       1       2       1       1       2
       1       1       2       1       1       2       1       1       2       1
       1       2       1       1       2       1       1       2       1       1
       2       1       1       2       1       1       2       1       1       2
       1       1       2       1       1       2       1       1       2       1
       1       2       1       1       2       1       1       2       1       1
       2       1       1       2       1       1       2       1       1       2
       1       1       2       1       1       2       1       1       2       1
       1       2       1       1       2       1       1       2       1       1
       2       1       1       2       1       1       2       1       1       2
       1       1       2       1       1       2       1       1       2       1
       1       2       1       1       2       1       1       2       1       1
       2       1       1       2       1       1       2       1       1       2
       1       1       2       1       1       2       1       1       2       1
       1       2       1       1       2       1       1       2       1       1
       2       1       1       2       1       1       2       1       1       2
       1       1       2       1       1       2       1       1       2       1
       1       2       1       1       2       1       1       2       1       1
       2       1       1       2       1       1       2       1       1       2
       1       1       2       1       1       2       1       1       2       1
       1       2       1       1       2       1       1       2       1       1
       2       1       1       2       1       1       2       1       1       2
       1       1       2       1       1       2       1       1       2       1
       1       2       1       1       2       1       1       2       1       1
       2       1       1       2       1       1       2       1       1       2
       1       1       2       1       1       2       1       1       2       1
       1       2       1       1       2       1       1       2       1       1
       2       1       1       2       1       1       2       1       1       2
       1       1       2       1       1       2       1       1       2       1
       1       2       1       1       2       1       1       2       1       1
       2       1       1       2       1       1       2       1       1       2
       1       1       2       1       1       2       1       1       2       1
       1       2       1       1       2       1       1       2       1       1
       2       1       1       2       1       1       2       1       1       2
       1       1       2       1       1       2       1       1       2       1
       1       2       1       1       2       1       1       2       1       1
       2       1       1       2       1       1       2       1       1       2
       1       1       2       1       1       2       1       1       2       1
       1       2       1       1       2       1       1       2       1       1
       2       1       1       2       1       1       2       1       1       2
       1       1       2       1       1       2       1       1       2       1
       1       2       1       1       2       1       1       2       1       1
       2       1       1       2       1       1       2       1       1       2
       1       1       2       1       1       2       1       1       2       1
       1       2       1       1       2       1       1       2       1       1
       2       1       1       2       1       1       2       1       1       2
       1       1       2       1       1       2       1       1       2       1
       1       2       1       1       2       1       1       2       1       1
       2       1       1       2       1       1       2       1       1       2
       1       1       2       1       1       2       1       1       2       1
       1       2       1       1       2       1       1       2       1       1
       2       1       1       2       1       1       2       1       1       2
       1       1       2       1       1       2       1       1       2       1
       1       2       1       1       2       1       1       2       1       1
       2       1       1       2       1       1       2       1       1       2
       1       1       2       1       1       2       1       1       2       1
       1       2       1       1       2       1       1       2       1       1
       2       1       1       2       1       1       2       1       1       2
       1       1       2       1       1       2       1       1       2       1
       1       2       1       1       2       1       1       2       1       1
       2       1       1       2       1       1       2       1       1       2
       1       1       2       1       1       2       1       1       2       1
       1       2       1       1       2       1       1       2       1       1
       2       1       1       2       1       1       2       1       1       2
       1       1       2       1       1       2       1       1       2       1
       1       2       1       1       2       1       1       2       1       1
       2       1       1       2       1       1       2       1       1       2
       1       1       2       1       1       2       1       1       2       1
       1       2       1       1       2       1       1       2       1       1
       2       1       1       2       1       1       2       1       1       2
       1       1       2       1       1       2       1       1       2       1
       1       2       1       1       2       1       1       2       1       1
       2       1       1       2       1       1       2       1       1       2
       1       1       2       1       1       2       1       1       2       1
       1       2       1       1       2       1       1       2       1       1
       2       1       1       2       1       1       2       1       1       2
       1       1       2       1       1       2       1       1       2       1
       1       2       1       1       2       1       1       2       1       1
       2       1       1       2       1       1       2       1       1       2
       1       1       2       1       1       2       1       1       2       1
       1       2       1       1       2       1       1       2       1       1
       2       1       1       2       1       1       2       1       1       2
       1       1       2       1       1       2       1       1       2       1
       1       2       1       1       2       1       1       2       1       1
       2       1       1       2       1       1       2       1       1       2
       1       1       2       1       1       2       1       1       2       1
       1       2       1       1       2       1       1       2       1       1
       2       1       1       2       1       1       2       1       1       2
       1       1       2       1       1       2       1       1       2       1
       1       2       1       1       2       1       1       2       1       1
       2       1       1       2       1       1       2       1       1       2
       1       1       2       1       1       2       1       1       2       1
       1       2       1       1       2       1       1       2       1       1
       2       1       1       2       1       1       2       1       1       2
       1       1       2       1       1       2       1       1       2       1
       1       2       1       1       2       1       1       2       1       1
       2       1       1       2       1       1       2       1       1       2
       1       1       2       1       1       2       1       1       2       1
       1       2       1       1       2       1       1       2       1       1
       2       1       1       2       1       1       2       1       1       2
       1       1       2       1       1       2       1       1       2       1
       1       2       1       1       2       1       1       2       1       1
       2       1       1       2       1       1       2       1       1       2
       1       1       2       1       1       2       1       1       2       1
       1       2       1       1       2       1       1       2       1       1
       2       1       1       2       1       1       2       1       1       2
       1       1       2       1       1       2       1       1       2       1
       1       2       1       1       2       1       1       2       1       1
       2       1       1       2       1       1       2       1       1       2
       1       1       2       1       1       2       1       1       2       1
       1       2       1       1       2       1       1       2       1       1
       2       1       1       2       1       1       2       1       1       2
       1       1       2       1       1       2       1       1       2       1
       1       2       1       1       2       1       1       2       1       1
       2       1       1       2       1       1       2       1       1       2
       1       1       2       1       1       2       1       1       2       1
       1       2       1       1       2       1       1       2       1       1
       2       1       1       2       1       1       2       1       1       2
       1       1       2       1       1       2       1       1       2       1
       1       2       1       1       2       1       1       2       1       1
       2       1       1       2       1       1       2       1       1       2
       1       1       2       1       1       2       1       1       2       1
       1       2       1       1       2       1       1       2       1       1
       2       1       1       2       1       1       2       1       1       2
       1       1       2       1       1       2       1       1       2       1
       1       2       1       1       2       1       1       2       1       1
       2       1       1       2       1       1       2       1       1       2
       1       1       2       1       1       2       1       1       2       1
       1       2       1       1       2       1       1       2       1       1
       2       1       1       2       1       1       2       1       1       2
       1       1       2       1       1       2       1       1       2       1
       1       2       1       1       2       1       1       2       1       1
       2       1       1       2       1       1       2       1       1       2
       1       1       2       1       1       2       1       1       2       1
       1       2       1       1       2       1       1       2       1       1
       2       1       1       2       1       1       2       1       1       2
       1       1       2       1       1       2       1       1       2       1
       1       2       1       1       2       1       1       2       1       1
       2       1       1       2       1       1       2       1       1       2
       1       1       2       1       1       2       1       1       2       1
       1       2       1       1       2       1       1       2       1       1
       2       1       1       2       1       1       2       1       1       2
       1       1       2       1       1       2       1       1       2       1
       1       2       1       1       2       1       1       2       1       1
       2       1       1       2       1       1       2       1       1       2
       1       1       2       1       1       2       1       1       2       1
       1       2       1       1       2       1       1       2       1       1
       2       1       1       2       1       1       2       1       1       2
       1       1       2       1       1       2       1       1       2       1
       1       2       1       1       2       1       1       2       1       1
       2       1       1       2       1       1       2       1       1       2
       1       1       2       1       1       2       1       1       2       1
       1       2       1       1       2       1       1       2       1       1
       2       1       1       2       1       1       2       1       1       2
       1       1       2       1       1       2       1       1       2       1
       1       2       1       1       2       1       1       2       1       1
       2       1       1       2       1       1       2       1       1       2
       1       1       2       1       1       2       1       1       2       1
       1       2       1       1       2       1       1       2       1       1
       2       1       1       2       1       1       2       1       1       2
       1       1       2       1       1       2       1       1       2       1
       1       2       1       1       2       1       1       2       1       1
       2       1       1       2       1       1       2       1       1       2
       1       1       2       1       1       2       1       1       2       1
       1       2       1       1       2       1       1       2       1       1
       2       1       1       2       1       1       2       1       1       2
       1       1       2       1       1       2       1       1       2       1
       1       2       1       1       2       1       1       2       1       1
       2       1       1       2       1       1       2       1       1       2
       1       1       2       1       1       2       1       1       2       1
       1       2       1       1       2       1       1       2       1       1
       2       1       1       2       1       1       2       1       1       2
       1       1       2       1       1       2       1       1       2       1
       1       2       1       1       2       1       1       2       1       1
       2       1       1       2       1       1       2       1       1       2
       1       1       2       1       1       2       1       1       2       1
       1       2       1       1       2       1       1       2       1       1
       2       1       1       2       1       1       2       1       1       2
       1       1       2       1       1       2       1       1       2       1
       1       2       1       1       2       1       1       2       1       1
       2       1       1       2       1       1       2       1       1       2
       1       1       2       1       1       2       1       1       2       1
       1       2       1       1       2       1       1       2       1       1
       2       1       1       2       1       1       2       1       1       2
       1       1       2       1       1       2       1       1       2       1
       1       2       1       1       2       1       1       2       1       1
       2       1       1       2       1       1       2       1       1       2
       1       1       2       1       1       2       1       1       2       1
       1       2       1       1       2       1       1       2       1       1
       2       1       1       2       1       1       2       1       1       2
       1       1       2       1       1       2       1       1       2       1
       1       2       1       1       2       1       1       2       1       1
       2       1       1       2       1       1       2       1       1       2
       1       1       2       1       1       2       1       1       2       1
       1       2       1       1       2       1       1       2       1       1
       2       1       1       2       1       1       2       1       1       2
       1       1       2       1       1       2       1       1       2       1
       1       2       1       1       2       1       1       2       1       1
       2       1       1       2       1       1       2       1       1       2
       1       1       2       1       1       2       1       1       2       1
       1       2       1       1       2       1       1       2       1       1
       2       1       1       2       1       1       2       1       1       2
       1       1       2       1       1       2       1       1       2       1
       1       2       1       1       2       1       1       2       1       1
       2       1       1       2       1       1       2       1       1       2
       1       1       2       1       1       2       1       1       2       1
       1       2       1       1       2       1       1       2       1       1
       2       1       1       2       1       1       2       1       1       2
       1       1       2       1       1       2       1       1       2       1
       1       2       1       1       2       1       1       2       1       1
       2       1       1       2       1       1       2       1       1       2
       1       1       2       1       1       2       1       1       2       1
       1       2       1       1       2       1       1       2       1       1
       2       1       1       2       1       1       2       1       1       2
       1       1       2       1       1       2       1       1       2       1
       1       2       1       1       2       1       1       2       1       1
       2       1       1       2       1       1       2       1       1       2
       1       1       2       1       1       2       1       1       2       1
       1       2       1       1       2       1       1       2       1       1
       2       1       1       2       1       1       2       1       1       2
       1       1       2       1       1       2       1       1       2       1
       1       2       1       1       2       1       1       2       1       1
       2       1       1       2       1       1       2       1       1       2
       1       1       2       1       1       2       1       1       2       1
       1       2       1       1       2       1       1       2       1       1
       2       1       1       2       1       1       2       1       1       2
       1       1       2       1       1       2       1       1       2       1
       1       2       1       1       2       1       1       2       1       1
       2       1       1       2       1       1       2       1       1       2
       1       1       2       1       1       2       1       1       2       1
       1       2       1       1       2       1       1       2       1       1
       2       1       1       2       1       1       2       1       1       2
       1       1       2       1       1       2       1       1       2       1
       1       2       1       1       2       1       1       2       1       1
       2       1       1       2       1       1       2       1       1       2
       1       1       2       1       1       2       1       1       2       1
       1       2       1       1       2       1       1       2       1       1
       2       1       1       2       1       1       2       1       1       2
       1       1       2       1       1       2       1       1       2       1
       1       2       1       1       2       1       1       2       1       1
       2       1       1       2       1       1       2       1       1       2
       1       1       2       1       1       2       1       1       2       1
       1       2       1       1       2       1       1       2       1       1
       2       1       1       2       1       1       2       1       1       2
       1       1       2       1       1       2       1       1       2       1
       1       2       1       1       2       1       1       2       1       1
       2       1       1       2       1       1       2       1       1       2
       1       1       2       1       1       2       1       1       2       1
       1       2       1       1       2       1       1       2       1       1
       2       1       1       2       1       1       2       1       1       2
       1       1       2       1       1       2       1       1       2       1
       1       2       1       1       2       1       1       2       1       1
       2       1       1       2       1       1       2       1       1       2
       1       1       2       1       1       2       1       1       2       1
       1       2       1       1       2       1       1       2       1       1
       2       1       1       2       1       1       2       1       1       2
       1       1       2       1       1       2       1       1       2       1
       1       2       1       1       2       1       1       2       1       1
       2       1       1       2       1       1       2       1       1       2
       1       1       2       1       1       2       1       1       2       1
       1       2       1       1       2       1       1       2       1       1
       2       1       1       2       1       1       2       1       1       2
       1       1       2       1       1       2       1       1       2       1
       1       2       1       1       2       1       1       2       1       1
       2       1       1       2       1       1       2       1       1       2
       1       1       2       1       1       2       1       1       2       1
       1       2       1       1       2       1       1       2       1       1
       2       1       1       2       1       1       2       1       1       2
       1       1       2       1       1       2       1       1       2       1
       1       2       1       1       2       1       1       2       1       1
       2       1       1       2       1       1       2       1       1       2
       1       1       2       1       1       2       1       1       2       1
       1       2       1       1       2       1       1       2       1       1
       2       1       1       2       1       1       2       1       1       2
       1       1       2       1       1       2       1       1       2       1
       1       2       1       1       2       1       1       2       1       1
       2       1       1       2       1       1       2       1       1       2
       1       1       2       1       1       2       1       1       2       1
       1       2       1       1       2       1       1       2       1       1
       2       1       1       2       1       1       2       1       1       2
       1       1       2       1       1       2       1       1       2       1
       1       2       1       1       2       1       1       2       1       1
       2       1       1       2       1       1       2       1       1       2
       1       1       2       1       1       2       1       1       2       1
       1       2       1       1       2       1       1       2       1       1
       2       1       1       2       1       1       2       1       1       2
       1       1       2       1       1       2       1       1       2       1
       1       2       1       1       2       1       1       2       1       1
       2       1       1       2       1       1       2       1       1       2
       1       1       2       1       1       2       1       1       2       1
       1       2       1       1       2       1       1       2       1       1
       2       1       1       2       1       1       2       1       1       2
       1       1       2       1       1       2       1       1       2       1
       1       2       1       1       2       1       1       2       1       1
       2       1       1       2       1       1       2       1       1       2
       1       1       2       1       1       2       1       1       2       1
       1       2       1       1       2       1       1       2       1       1
       2       1       1       2       1       1       2       1       1       2
       1       1       2       1       1       2       1       1       2       1
       1       2       1       1       2       1       1       2       1       1
       2       1       1       2       1       1       2       1       1       2
       1       1       2       1       1       2       1       1       2       1
       1       2       1       1       2       1       1       2       1       1
       2       1       1       2       1       1       2       1       1       2
       1       1       2       1       1       2       1       1       2       1
       1       2       1       1       2       1       1       2       1       1
       2       1       1       2       1       1       2       1       1       2
       1       1       2       1       1       2       1       1       2       1
       1       2       1       1       2       1       1       2       1       1
       2       1       1       2       1       1       2       1       1       2
       1       1       2       1       1       2       1       1       2       1
       1       2       1       1       2       1       1       2       1       1
       2       1       1       2       1       1       2       1       1       2
       1       1       2       1       1       2       1       1       2       1
       1       2       1       1       2       1       1       2       1       1
       2       1       1       2       1       1       2       1       1       2
       1       1       2       1       1       2       1       1       2       1
       1       2       1       1       2       1       1       2       1       1
       2       1       1       2       1       1       2       1       1       2
       1       1       2       1       1       2       1       1       2       1
       1       2       1       1       2       1       1       2       1       1
       2       1       1       2       1       1       2       1       1       2
       1       1       2       1       1       2       1       1       2       1
       1       2       1       1       2       1       1       2       1       1
       2       1       1       2       1       1       2       1       1       2
       1       1       2       1       1       2       1       1       2       1
       1       2       1       1       2       1       1       2       1       1
       2       1       1       2       1       1       2       1       1       2
       1       1       2       1       1       2       1       1       2       1
       1       2       1       1       2       1       1       2       1       1
       2       1       1       2       1       1       2       1       1       2
       1       1       2       1       1       2       1       1       2       1
       1       2       1       1       2       1       1       2       1       1
       2       1       1       2       1       1       2       1       1       2
       1       1       2       1       1       2       1       1       2       1
       1       2       1       1       2       1       1       2       1       1
       2       1       1       2       1       1       2       1       1       2
       1       1       2       1       1       2       1       1       2       1
       1       2       1       1       2       1       1       2       1       1
       2       1       1       2       1       1       2       1       1       2
       1       1       2       1       1       2       1       1       2       1
       1       2       1       1       2       1       1       2       1       1
       2       1       1       2       1       1       2       1       1       2
       1       1       2       1       1       2       1       1       2       1
       1       2       1       1       2       1       1       2       1       1
       2       1       1       2       1       1       2       1       1       2
       1       1       2       1       1       2       1       1       2       1
       1       2       1       1       2       1       1       2       1       1
       2       1       1       2       1       1       2       1       1       2
       1       1       2       1       1       2       1       1       2       1
       1       2       1       1       2       1       1       2       1       1
       2       1       1       2       1       1       2       1       1       2
       1       1       2       1       1       2       1       1       2       1
       1       2       1       1       2       1       1       2       1       1
       2       1       1       2       1       1       2       1       1       2
       1       1       2       1       1       2       1       1       2       1
       1       2       1       1       2       1       1       2       1       1
       2       1       1       2       1       1       2       1       1       2
       1       1       2       1       1       2       1       1       2       1
       1       2       1       1       2       1       1       2       1       1
       2       1       1       2       1       1       2       1       1       2
       1       1       2       1       1       2       1       1       2       1
       1       2       1       1       2       1       1       2       1       1
       2       1       1       2       1       1       2       1       1       2
       1       1       2       1       1       2       1       1       2       1
       1       2       1       1       2       1       1       2       1       1
       2       1       1       2       1       1       2       1       1       2
       1       1       2       1       1       2       1       1       2       1
       1       2       1       1       2       1       1       2       1       1
       2       1       1       2       1       1       2       1       1       2
       1       1       2       1       1       2       1       1       2       1
       1       2       1       1       2       1       1       2       1       1
       2       1       1       2       1       1       2       1       1       2
       1       1       2       1       1       2       1       1       2       1
       1       2       1       1       2       1       1       2       1       1
       2       1       1       2       1       1       2       1       1       2
       1       1       2       1       1       2       1       1       2       1
       1       2       1       1       2       1       1       2       1       1
       2       1       1       2       1       1       2       1       1       2
       1       1       2       1       1       2       1       1       2       1
       1       2       1       1       2       1       1       2       1       1
       2       1       1       2       1       1       2       1       1       2
       1       1       2       1       1       2       1       1       2       1
       1       2       1       1       2       1       1       2       1       1
       2       1       1       2       1       1       2       1       1       2
       1       1       2       1       1       2       1       1       2       1
       1       2       1       1       2       1       1       2       1       1
       2       1       1       2       1       1       2       1       1       2
       1       1       2       1       1       2       1       1       2       1
       1       2       1       1       2       1       1       2       1       1
       2       1       1       2       1       1       2       1       1       2
       1       1       2       1       1       2       1       1       2       1
       1       2       1       1       2       1       1       2       1       1
       2       1       1       2       1       1       2       1       1       2
       1       1       2       1       1       2       1       1       2       1
       1       2       1       1       2       1       1       2       1       1
       2       1       1       2       1       1       2       1       1       2
       1       1       2       1       1       2       1       1       2       1
       1       2       1       1       2       1       1       2       1       1
       2       1       1       2       1       1       2       1       1       2
       1       1       2       1       1       2       1       1       2       1
       1       2       1       1       2       1       1       2       1       1
       2       1       1       2       1       1       2       1       1       2
       1       1       2       1       1       2       1       1       2       1
       1       2       1       1       2       1       1       2       1       1
       2       1       1       2       1       1       2       1       1       2
       1       1       2       1       1       2       1       1       2       1
       1       2       1       1       2       1       1       2       1       1
       2       1       1       2       1       1       2       1       1       2
       1       1       2       1       1       2       1       1       2       1
       1       2       1       1       2       1       1       2       1       1
       2       1       1       2       1       1       2       1       1       2
       1       1       2       1       1       2       1       1       2       1
       1       2       1       1       2       1       1       2       1       1
       2       1       1       2       1       1       2       1       1       2
       1       1       2       1       1       2       1       1       2       1
       1       2       1       1       2       1       1       2       1       1
       2       1       1       2       1       1       2       1       1       2
       1       1       2       1       1       2       1       1       2       1
       1       2       1       1       2       1       1       2       1       1
       2       1       1       2       1       1       2       1       1       2
       1       1       2       1       1       2       1       1       2       1
       1       2       1       1       2       1       1       2       1       1
       2       1       1       2       1       1       2       1       1       2
       1       1       2       1       1       2       1       1       2       1
       1       2       1       1       2       1       1       2       1       1
       2       1       1       2       1       1       2       1       1       2
       1       1       2       1       1       2       1       1       2       1
       1       2       1       1       2       1       1       2       1       1
       2       1       1       2       1       1       2       1       1       2
       1       1       2       1       1       2       1       1       2       1
       1       2       1       1       2       1       1       2       1       1
       2       1       1       2       1       1       2       1       1       2
       1       1       2       1       1       2       1       1       2       1
       1       2       1       1       2       1       1       2       1       1
       2       1       1       2       1       1       2       1       1       2
       1       1       2       1       1       2       1       1       2       1
       1       2       1       1       2       1       1       2       1       1
       2       1       1       2       1       1       2       1       1       2
       1       1       2       1       1       2       1       1       2       1
       1       2       1       1       2       1       1       2       1       1
       2       1       1       2       1       1       2       1       1       2
       1       1       2       1       1       2       1       1       2       1
       1       2       1       1       2       1       1       2       1       1
       2       1       1       2       1       1       2       1       1       2
       1       1       2       1       1       2       1       1       2       1
       1       2       1       1       2       1       1       2       1       1
       2       1       1       2       1       1       2       1       1       2
       1       1       2       1       1       2       1       1       2       1
       1       2       1       1       2       1       1       2       1       1
       2       1       1       2       1       1       2       1       1       2
       1       1       2       1       1       2       1       1       2       1
       1       2       1       1       2       1       1       2       1       1
       2       1       1       2       1       1       2       1       1       2
       1       1       2       1       1       2       1       1       2       1
       1       2       1       1       2       1       1       2       1       1
       2       1       1       2       1       1       2       1       1       2
       1       1       2       1       1       2       1       1       2       1
       1       2       1       1       2       1       1       2       1       1
       2       1       1       2       1       1       2       1       1       2
       1       1       2       1       1       2       1       1       2       1
       1       2       1       1       2       1       1       2       1       1
       2       1       1       2       1       1       2       1       1       2
       1       1       2       1       1       2       1       1       2       1
       1       2       1       1       2       1       1       2       1       1
       2       1       1       2       1       1       2       1       1       2
       1       1       2       1       1       2       1       1       2       1
       1       2       1       1       2       1       1       2       1       1
       2       1       1       2       1       1       2       1       1       2
       1       1       2       1       1       2       1       1       2       1
       1       2       1       1       2       1       1       2       1       1
       2       1       1       2       1       1       2       1       1       2
       1       1       2       1       1       2       1       1       2       1
       1       2       1       1       2       1       1       2       1       1
       2       1       1       2       1       1       2       1       1       2
       1       1       2       1       1       2       1       1       2       1
       1       2       1       1       2       1       1       2       1       1
       2       1       1       2       1       1       2       1       1       2
       1       1       2       1       1       2       1       1       2       1
       1       2       1       1       2       1       1       2       1       1
       2       1       1       2       1       1       2       1       1       2
       1       1       2       1       1       2       1       1       2       1
       1       2       1       1       2       1       1       2       1       1
       2       1       1       2       1       1       2       1       1       2
       1       1       2       1       1       2       1       1       2       1
       1       2       1       1       2       1       1       2       1       1
       2       1       1       2       1       1       2       1       1       2
       1       1       2       1       1       2       1       1       2       1
       1       2       1       1       2       1       1       2       1       1
       2       1       1       2       1       1       2       1       1       2
       1       1       2       1       1       2       1       1       2       1
       1       2       1       1       2       1       1       2       1       1
       2       1       1       2       1       1       2       1       1       2
       1       1       2       1       1       2       1       1       2       1
       1       2       1       1       2       1       1       2       1       1
       2       1       1       2       1       1       2       1       1       2
       1       1       2       1       1       2       1       1       2       1
       1       2       1       1       2       1       1       2       1       1
       2       1       1       2       1       1       2       1       1       2
       1       1       2       1       1       2       1       1       2       1
       1       2       1       1       2       1       1       2       1       1
       2       1       1       2       1       1       2       1       1       2
       1       1       2       1       1       2       1       1       2       1
       1       2       1       1       2       1       1       2       1       1
       2       1       1       2       1       1       2       1       1       2
       1       1       2       1       1       2       1       1       2       1
       1       2       1       1       2       1       1       2       1       1
       2       1       1       2       1       1       2       1       1       2
       1       1       2       1       1       2       1       1       2       1
       1       2       1       1       2       1       1       2       1       1
       2       1       1       2       1       1       2       1       1       2
       1       1       2       1       1       2       1       1       2       1
       1       2       1       1       2       1       1       2       1       1
       2       1       1       2       1       1       2       1       1       2
       1       1       2       1       1       2       1       1       2       1
       1       2       1       1       2       1       1       2       1       1
       2       1       1       2       1       1       2       1       1       2
       1       1       2       1       1       2       1       1       2       1
       1       2       1       1       2       1       1       2       1       1
       2       1       1       2       1       1       2       1       1       2
       1       1       2       1       1       2       1       1       2       1
       1       2       1       1       2       1       1       2       1       1
       2       1       1       2       1       1       2       1       1       2
       1       1       2       1       1       2       1       1       2       1
       1       2       1       1       2       1       1       2       1       1
       2       1       1       2       1       1       2       1       1       2
       1       1       2       1       1       2       1       1       2       1
       1       2       1       1       2       1       1       2       1       1
       2       1       1       2       1       1       2       1       1       2
       1       1       2       1       1       2       1       1       2       1
       1       2       1       1       2       1       1       2       1       1
       2       1       1       2       1       1       2       1       1       2
       1       1       2       1       1       2       1       1       2       1
       1       2       1       1       2       1       1       2       1       1
       2       1       1       2       1       1       2       1       1       2
       1       1       2       1       1       2       1       1       2       1
       1       2       1       1       2       1       1       2       1       1
       2       1       1       2       1       1       2       1       1       2
       1       1       2       1       1       2       1       1       2       1
       1       2       1       1       2       1       1       2       1       1
       2       1       1       2       1       1       2       1       1       2
       1       1       2       1       1       2       1       1       2       1
       1       2       1       1       2       1       1       2       1       1
       2       1       1       2       1       1       2       1       1       2
       1       1       2       1       1       2       1       1       2       1
       1       2       1       1       2       1       1       2       1       1
       2       1       1       2       1       1       2       1       1       2
       1       1       2       1       1       2       1       1       2       1
       1       2       1       1       2       1       1       2       1       1
       2       1       1       2       1       1       2       1       1       2
       1       1       2       1       1       2       1       1       2       1
       1       2       1       1       2       1       1       2       1       1
       2       1       1       2       1       1       2       1       1       2
       1       1       2       1       1       2       1       1       2       1
       1       2       1       1       2       1       1       2       1       1
       2       1       1       2       1       1       2       1       1       2
       1       1       2       1       1       2       1       1       2       1
       1       2       1       1       2       1       1       2       1       1
       2       1       1       2       1       1       2       1       1       2
       1       1       2       1       1       2       1       1       2       1
       1       2       1       1       2       1       1       2       1       1
       2       1       1       2       1       1       2       1       1       2
       1       1       2       1       1       2       1       1       2       1
       1       2       1       1       2       1       1       2       1       1
       2       1       1       2       1       1       2       1       1       2
       1       1       2       1       1       2       1       1       2       1
       1       2       1       1       2       1       1       2       1       1
       2       1       1       2       1       1       2       1       1       2
       1       1       2       1       1       2       1       1       2       1
       1       2       1       1       2       1       1       2       1       1
       2       1       1       2       1       1       2       1       1       2
       1       1       2       1       1       2       1       1       2       1
       1       2       1       1       2       1       1       2       1       1
       2       1       1       2       1       1       2       1       1       2
       1       1       2       1       1       2       1       1       2       1
       1       2       1       1       2       1       1       2       1       1
       2       1       1       2       1       1       2       1       1       2
       1       1       2       1       1       2       1       1       2       1
       1       2       1       1       2       1       1       2       1       1
       2       1       1       2       1       1       2       1       1       2
       1       1       2       1       1       2       1       1       2       1
       1       2       1       1       2       1       1       2       1       1
       2       1       1       2       1       1       2       1       1       2
       1       1       2       1       1       2       1       1       2       1
       1       2       1       1       2       1       1       2       1       1
       2       1       1       2       1       1       2       1       1       2
       1       1       2       1       1       2       1       1       2       1
       1       2       1       1       2       1       1       2       1       1
       2       1       1       2       1       1       2       1       1       2
       1       1       2       1       1       2       1       1       2       1
       1       2       1       1       2       1       1       2       1       1
       2       1       1       2       1       1       2       1       1       2
       1       1       2       1       1       2       1       1       2       1
       1       2       1       1       2       1       1       2       1       1
       2       1       1       2       1       1       2       1       1       2
       1       1       2       1       1       2       1       1       2       1
       1       2       1       1       2       1       1       2       1       1
       2       1       1       2       1       1       2       1       1       2
       1       1       2       1       1       2       1       1       2       1
       1       2       1       1       2       1       1       2       1       1
       2       1       1       2       1       1       2       1       1       2
       1       1       2       1       1       2       1       1       2       1
       1       2       1       1       2       1       1       2       1       1
       2       1       1       2       1       1       2       1       1       2
       1       1       2       1       1       2       1       1       2       1
       1       2       1       1       2       1       1       2       1       1
       2       1       1       2       1       1       2       1       1       2
       1       1       2       1       1       2       1       1       2       1
       1       2       1       1       2       1       1       2       1       1
       2       1       1       2       1       1       2       1       1       2
       1       1       2       1       1       2       1       1       2       1
       1       2       1       1       2       1       1       2       1       1
       2       1       1       2       1       1       2       1       1       2
       1       1       2       1       1       2       1       1       2       1
       1       2       1       1       2       1       1       2       1       1
       2       1       1       2       1       1       2       1       1       2
       1       1       2       1       1       2       1       1       2       1
       1       2       1       1       2       1       1       2       1       1
       2       1       1       2       1       1       2       1       1       2
       1       1       2       1       1       2       1       1       2       1
       1       2       1       1       2       1       1       2       1       1
       2       1       1       2       1       1       2       1       1       2
       1       1       2       1       1       2       1       1       2       1
       1       2       1       1       2       1       1       2       1       1
       2       1       1       2       1       1       2       1       1       2
       1       1       2       1       1       2       1       1       2       1
       1       2       1       1       2       1       1       2       1       1
       2       1       1       2       1       1       2       1       1       2
       1       1       2       1       1       2       1       1       2       1
       1       2       1       1       2       1       1       2       1       1
       2       1       1       2       1       1       2       1       1       2
       1       1       2       1       1       2       1       1       2       1
       1       2       1       1       2       1       1       2       1       1
       2       1       1       2       1       1       2       1       1       2
       1       1       2       1       1       2       1       1       2       1
       1       2       1       1       2       1       1       2       1       1
       2       1       1       2       1       1       2       1       1       2
       1       1       2       1       1       2       1       1       2       1
       1       2       1       1       2       1       1       2       1       1
       2       1       1       2       1       1       2       1       1       2
       1       1       2       1       1       2       1       1       2       1
       1       2       1       1       2       1       1       2       1       1
       2       1       1       2       1       1       2       1       1       2
       1       1       2       1       1       2       1       1       2       1
       1       2       1       1       2       1       1       2       1       1
       2       1       1       2       1       1       2       1       1       2
       1       1       2       1       1       2       1       1       2       1
       1       2       1       1       2       1       1       2       1       1
       2       1       1       2       1       1       2       1       1       2
       1       1       2       1       1       2       1       1       2       1
       1       2       1       1       2       1       1       2       1       1
       2       1       1       2       1       1       2       1       1       2
       1       1       2       1       1       2       1       1       2       1
       1       2       1       1       2       1       1       2       1       1
       2       1       1       2       1       1       2       1       1       2
       1       1       2       1       1       2       1       1       2       1
       1       2       1       1       2       1       1       2       1       1
       2       1       1       2       1       1       2       1       1       2
       1       1       2       1       1       2       1       1       2       1
       1       2       1       1       2       1       1       2       1       1
       2       1       1       2       1       1       2       1       1       2
       1       1       2       1       1       2       1       1       2       1
       1       2       1       1       2       1       1       2       1       1
       2       1       1       2       1       1       2       1       1       2
       1       1       2       1       1       2       1       1       2       1
       1       2       1       1       2       1       1       2       1       1
       2       1       1       2       1       1       2       1       1       2
       1       1       2       1       1       2       1       1       2       1
       1       2       1       1       2       1       1       2       1       1
       2       1       1       2       1       1       2       1       1       2
       1       1       2       1       1       2       1       1       2       1
       1       2       1       1       2       1       1       2       1       1
       2       1       1       2       1       1       2       1       1       2
       1       1       2       1       1       2       1       1       2       1
       1       2       1       1       2       1       1       2       1       1
       2       1       1       2       1       1       2       1       1       2
       1       1       2       1       1       2       1       1       2       1
       1       2       1       1       2       1       1       2       1       1
       2       1       1       2       1       1       2       1       1       2
       1       1       2       1       1       2       1       1       2       1
       1       2       1       1       2       1       1       2       1       1
       2       1       1       2       1       1       2       1       1       2
       1       1       2       1       1       2       1       1       2       1
       1       2       1       1       2       1       1       2       1       1
       2       1       1       2       1       1       2       1       1       2
       1       1       2       1       1       2       1       1       2       1
       1       2       1       1       2       1       1       2       1       1
       2       1       1       2       1       1       2       1       1       2
       1       1       2       1       1       2       1       1       2       1
       1       2       1       1       2       1       1       2       1       1
       2       1       1       2       1       1       2       1       1       2
       1       1       2       1       1       2       1       1       2       1
       1       2       1       1       2       1       1       2       1       1
       2       1       1       2       1       1       2       1       1       2
       1       1       2       1       1       2       1       1       2       1
       1       2       1       1       2       1       1       2       1       1
       2       1       1       2       1       1       2       1       1       2
       1       1       2       1       1       2       1       1       2       1
       1       2       1       1       2       1       1       2       1       1
       2       1       1       2       1       1       2       1       1       2
       1       1       2       1       1       2       1       1       2       1
       1       2       1       1       2       1       1       2       1       1
       2       1       1       2       1       1       2       1       1       2
       1       1       2       1       1       2       1       1       2       1
       1       2       1       1       2       1       1       2       1       1
       2       1       1       2       1       1       2       1       1       2
       1       1       2       1       1       2       1       1       2       1
       1       2       1       1       2       1       1       2       1       1
       2       1       1       2       1       1       2       1       1       2
       1       1       2       1       1       2       1       1       2       1
       1       2       1       1       2       1       1       2       1       1
       2       1       1       2       1       1       2       1       1       2
       1       1       2       1       1       2       1       1       2       1
       1       2       1       1       2       1       1       2       1       1
       2       1       1       2       1       1       2       1       1       2
       1       1       2       1       1       2       1       1       2       1
       1       2       1       1       2       1       1       2       1       1
       2       1       1       2       1       1       2       1       1       2
       1       1       2       1       1       2       1       1       2       1
       1       2       1       1       2       1       1       2       1       1
       2       1       1       2       1       1       2       1       1       2
       1       1       2       1       1       2       1       1       2       1
       1       2       1       1       2       1       1       2       1       1
       2       1       1       2       1       1       2       1       1       2
       1       1       2       1       1       2       1       1       2       1
       1       2       1       1       2       1       1       2       1       1
       2       1       1       2       1       1       2       1       1       2
       1       1       2       1       1       2       1       1       2       1
       1       2       1       1       2       1       1       2       1       1
       2       1       1       2       1       1       2       1       1       2
       1       1       2       1       1       2       1       1       2       1
       1       2       1       1       2       1       1       2       1       1
       2       1       1       2       1       1       2       1       1       2
       1       1       2       1       1       2       1       1       2       1
       1       2       1       1       2       1       1       2       1       1
       2       1       1       2       1       1       2       1       1       2
       1       1       2       1       1       2       1       1       2       1
       1       2       1       1       2       1       1       2       1       1
       2       1       1       2       1       1       2       1       1       2
       1       1       2       1       1       2       1       1       2       1
       1       2       1       1       2       1       1       2       1       1
       2       1       1       2       1       1       2       1       1       2
       1       1       2       1       1       2       1       1       2       1
       1       2       1       1       2       1       1       2       1       1
       2       1       1       2       1       1       2       1       1       2
       1       1       2       1       1       2       1       1       2       1
       1       2       1       1       2       1       1       2       1       1
       2       1       1       2       1       1       2       1       1       2
       1       1       2       1       1       2       1       1       2       1
       1       2       1       1       2       1       1       2       1       1
       2       1       1       2       1       1       2       1       1       2
       1       1       2       1       1       2       1       1       2       1
       1       2       1       1       2       1       1       2       1       1
       2       1       1       2       1       1       2       1       1       2
       1       1       2       1       1       2       1       1       2       1
       1       2       1       1       2       1       1       2       1       1
       2       1       1       2       1       1       2       1       1       2
       1       1       2       1       1       2       1       1       2       1
       1       2       1       1       2       1       1       2       1       1
       2       1       1       2       1       1       2       1       1       2
       1       1       2       1       1       2       1       1       2       1
       1       2       1       1       2       1       1       2       1       1
       2       1       1       2       1       1       2       1       1       2
       1       1       2       1       1       2       1       1       2       1
       1       2       1       1       2       1       1       2       1       1
       2       1       1       2       1       1       2       1       1       2
       1       1       2       1       1       2       1       1       2       1
       1       2       1       1       2       1       1       2       1       1
       2       1       1       2       1       1       2       1       1       2
       1       1       2       1       1       2       1       1       2       1
       1       2       1       1       2       1       1       2       1       1
       2       1       1       2       1       1       2       1       1       2
       1       1       2       1       1       2       1       1       2       1
       1       2       1       1       2       1       1       2       1       1
       2       1       1       2       1       1       2       1       1       2
       1       1       2       1       1       2       1       1       2       1
       1       2       1       1       2       1       1       2       1       1
       2       1       1       2       1       1       2       1       1       2
       1       1       2       1       1       2       1       1       2       1
       1       2       1       1       2       1       1       2       1       1
       2       1       1       2       1       1       2       1       1       2
       1       1       2       1       1       2       1       1       2       1
       1       2       1       1       2       1       1       2       1       1
       2       1       1       2       1       1       2       1       1       2
       1       1       2       1       1       2       1       1       2       1
       1       2       1       1       2       1       1       2       1       1
       2       1       1       2       1       1       2       1       1       2
       1       1       2       1       1       2       1       1       2       1
       1       2       1       1       2       1       1       2       1       1
       2       1       1       2       1       1       2       1       1       2
       1       1       2       1       1       2       1       1       2       1
       1       2       1       1       2       1       1       2       1       1
       2       1       1       2       1       1       2       1       1       2
       1       1       2       1       1       2       1       1       2       1
       1       2       1       1       2       1       1       2       1       1
       2       1       1       2       1       1       2       1       1       2
       1       1       2       1       1       2       1       1       2       1
       1       2       1       1       2       1       1       2       1       1
       2       1       1       2       1       1       2       1       1       2
       1       1       2       1       1       2       1       1       2       1
       1       2       1       1       2       1       1       2       1       1
       2       1       1       2       1       1       2       1       1       2
       1       1       2       1       1       2       1       1       2       1
       1       2       1       1       2       1       1       2       1       1
       2       1       1       2       1       1       2       1       1       2
       1       1       2       1       1       2       1       1       2       1
       1       2       1       1       2       1       1       2       1       1
       2       1       1       2       1       1       2       1       1       2
       1       1       2       1       1       2       1       1       2       1
       1       2       1       1       2       1       1       2       1       1
       2       1       1       2       1       1       2       1       1       2
       1       1       2       1       1       2       1       1       2       1
       1       2       1       1       2       1       1       2       1       1
       2       1       1       2       1       1       2       1       1       2
       1       1       2       1       1       2       1       1       2       1
       1       2       1       1       2       1       1       2       1       1
       2       1       1       2       1       1       2       1       1       2
       1       1       2       1       1       2       1       1       2       1
       1       2       1       1       2       1       1       2       1       1
       2       1       1       2       1       1       2       1       1       2
       1       1       2       1       1       2       1       1       2       1
       1       2       1       1       2       1       1       2       1       1
       2       1       1       2       1       1       2       1       1       2
       1       1       2       1       1       2       1       1       2       1
       1       2       1       1       2       1       1       2       1       1
       2       1       1       2       1       1       2       1       1       2
       1       1       2       1       1       2       1       1       2       1
       1       2       1       1       2       1       1       2       1       1
       2       1       1       2       1       1       2       1       1       2
       1       1       2       1       1       2       1       1       2       1
       1       2       1       1       2       1       1       2       1       1
       2       1       1       2       1       1       2       1       1       2
       1       1       2       1       1       2       1       1       2       1
       1       2       1       1       2       1       1       2       1       1
       2       1       1       2       1       1       2       1       1       2
       1       1       2       1       1       2       1       1       2       1
       1       2       1       1       2       1       1       2       1       1
       2       1       1       2       1       1       2       1       1       2
       1       1       2       1       1       2       1       1       2       1
       1       2       1       1       2       1       1       2       1       1
       2       1       1       2       1       1       2       1       1       2
       1       1       2       1       1       2       1       1       2       1
       1       2       1       1       2       1       1       2       1       1
       2       1       1       2       1       1       2       1       1       2
       1       1       2       1       1       2       1       1       2       1
       1       2       1       1       2       1       1       2       1       1
       2       1       1       2       1       1       2       1       1       2
       1       1       2       1       1       2       1       1       2       1
       1       2       1       1       2       1       1       2       1       1
       2       1       1       2       1       1       2       1       1       2
       1       1       2       1       1       2       1       1       2       1
       1       2       1       1       2       1       1       2       1       1
       2       1       1       2       1       1       2       1       1       2
       1       1       2       1       1       2       1       1       2       1
       1       2       1       1       2       1       1       2       1       1
       2       1       1       2       1       1       2       1       1       2
       1       1       2       1       1       2       1       1       2       1
       1       2       1       1       2       1       1       2       1       1
       2       1       1       2       1       1       2       1       1       2
       1       1       2       1       1       2       1       1       2       1
       1       2       1       1       2       1       1       2       1       1
       2       1       1       2       1       1       2       1       1       2
       1       1       2       1       1       2       1       1       2       1
       1       2       1       1       2       1       1       2       1       1
       2       1       1       2       1       1       2       1       1       2
       1       1       2       1       1       2       1       1       2       1
       1       2       1       1       2       1       1       2       1       1
       2       1       1       2       1       1       2       1       1       2
       1       1       2       1       1       2       1       1       2       1
       1       2       1       1       2       1       1       2       1       1
       2       1       1       2       1       1       2       1       1       2
       1       1       2       1       1       2       1       1       2       1
       1       2       1       1       2       1       1       2       1       1
       2       1       1       2       1       1       2       1       1       2
       1       1       2       1       1       2       1       1       2       1
       1       2       1       1       2       1       1       2       1       1
       2       1       1       2       1       1       2       1       1       2
       1       1       2       1       1       2       1       1       2       1
       1       2       1       1       2       1       1       2       1       1
       2       1       1       2       1       1       2       1       1       2
       1       1       2       1       1       2       1       1       2       1
       1       2       1       1       2       1       1       2       1       1
       2       1       1       2       1       1       2       1       1       2
       1       1       2       1       1       2       1       1       2       1
       1       2       1       1       2       1       1       2       1       1
       2       1       1       2       1       1       2       1       1       2
       1       1       2       1       1       2       1       1       2       1
       1       2       1       1       2       1       1       2       1       1
       2       1       1       2       1       1       2       1       1       2
       1       1       2       1       1       2       1       1       2       1
       1       2       1       1       2       1       1       2       1       1
       2       1       1       2       1       1       2       1       1       2
       1       1       2       1       1       2       1       1       2       1
       1       2       1       1       2       1       1       2       1       1
       2       1       1       2       1       1       2       1       1       2
       1       1       2       1       1       2       1       1       2       1
       1       2       1       1       2       1       1       2       1       1
       2       1       1       2       1       1       2       1       1       2
       1       1       2       1       1       2       1       1       2       1
       1       2       1       1       2       1       1       2       1       1
       2       1       1       2       1       1       2       1       1       2
       1       1       2       1       1       2       1       1       2       1
       1       2       1       1       2       1       1       2       1       1
       2       1       1       2       1       1       2       1       1       2
       1       1       2       1       1       2       1       1       2       1
       1       2       1       1       2       1       1       2       1       1
       2       1       1       2       1       1       2       1       1       2
       1       1       2       1       1       2       1       1       2       1
       1       2       1       1       2       1       1       2       1       1
       2       1       1       2       1       1       2       1       1       2
       1       1       2       1       1       2       1       1       2       1
       1       2       1       1       2       1       1       2       1       1
       2       1       1       2       1       1       2       1       1       2
       1       1       2       1       1       2       1       1       2       1
       1       2       1       1       2       1       1       2       1       1
       2       1       1       2       1       1       2       1       1       2
       1       1       2       1       1       2       1       1       2       1
       1       2       1       1       2       1       1       2       1       1
       2       1       1       2       1       1       2       1       1       2
       1       1       2       1       1       2       1       1       2       1
       1       2       1       1       2       1       1       2       1       1
       2       1       1       2       1       1       2       1       1       2
       1       1       2       1       1       2       1       1       2       1
       1       2       1       1       2       1       1       2       1       1
       2       1       1       2       1       1       2       1       1       2
       1       1       2       1       1       2       1       1       2       1
       1       2       1       1       2       1       1       2       1       1
       2       1       1       2       1       1       2       1       1       2
       1       1       2       1       1       2       1       1       2       1
       1       2       1       1       2       1       1       2       1       1
       2       1       1       2       1       1       2       1       1       2
       1       1       2       1       1       2       1       1       2       1
       1       2       1       1       2       1       1       2       1       1
       2       1       1       2       1       1       2       1       1       2
       1       1       2       1       1       2       1       1       2       1
       1       2       1       1       2       1       1       2       1       1
       2       1       1       2       1       1       2       1       1       2
       1       1       2       1       1       2       1       1       2       1
       1       2       1       1       2       1       1       2       1       1
       2       1       1       2       1       1       2       1       1       2
       1       1       2       1       1       2       1       1       2       1
       1       2       1       1       2       1       1       2       1       1
       2       1       1       2       1       1       2       1       1       2
       1       1       2       1       1       2       1       1       2       1
       1       2       1       1       2       1       1       2       1       1
       2       1       1       2       1       1       2       1       1       2
       1       1       2       1       1       2       1       1       2       1
       1       2       1       1       2       1       1       2       1       1
       2       1       1       2       1       1       2       1       1       2
       1       1       2       1       1       2       1       1       2       1
       1       2       1       1       2       1       1       2       1       1
       2       1       1       2       1       1       2       1       1       2
       1       1       2       1       1       2       1       1       2       1
       1       2       1       1       2       1       1       2       1       1
       2       1       1       2       1       1       2       1       1       2
       1       1       2       1       1       2       1       1       2       1
       1       2       1       1       2       1       1       2       1       1
       2       1       1       2       1       1       2       1       1       2
       1       1       2       1       1       2       1       1       2       1
       1       2       1       1       2       1       1       2       1       1
       2       1       1       2       1       1       2       1       1       2
       1       1       2       1       1       2       1       1       2       1
       1       2       1       1       2       1       1       2       1       1
       2       1       1       2       1       1       2       1       1       2
       1       1       2       1       1       2       1       1       2       1
       1       2       1       1       2       1       1       2       1       1
       2       1       1       2       1       1       2       1       1       2
       1       1       2       1       1       2       1       1       2       1
       1       2       1       1       2       1       1       2       1       1
       2       1       1       2       1       1       2       1       1       2
       1       1       2       1       1       2       1       1       2       1
       1       2       1       1       2       1       1       2       1       1
       2       1       1       2       1       1       2       1       1       2
       1       1       2       1       1       2       1       1       2       1
       1       2       1       1       2       1       1       2       1       1
       2       1       1       2       1       1       2       1       1       2
       1       1       2       1       1       2       1       1       2       1
       1       2       1       1       2       1       1       2       1       1
       2       1       1       2       1       1       2       1       1       2
       1       1       2       1       1       2       1       1       2       1
       1       2       1       1       2       1       1       2       1       1
       2       1       1       2       1       1       2       1       1       2
       1       1       2       1       1       2       1       1       2       1
       1       2       1       1       2       1       1       2       1       1
       2       1       1       2       1       1       2       1       1       2
       1       1       2       1       1       2       1       1       2       1
       1       2       1       1       2       1       1       2       1       1
       2       1       1       2       1       1       2       1       1       2
       1       1       2       1       1       2       1       1       2       1
       1       2       1       1       2       1       1       2       1       1
       2       1       1       2       1       1       2       1       1       2
       1       1       2       1       1       2       1       1       2       1
       1       2       1       1       2       1       1       2       1       1
       2       1       1       2       1       1       2       1       1       2
       1       1       2       1       1       2       1       1       2       1
       1       2       1       1       2       1       1       2       1       1
       2       1       1       2       1       1       2       1       1       2
       1       1       2       1       1       2       1       1       2       1
       1       2       1       1       2       1       1       2       1       1
       2       1       1       2       1       1       2       1       1       2
       1       1       2       1       1       2       1       1       2       1
       1       2       1       1       2       1       1       2       1       1
       2       1       1       2       1       1       2       1       1       2
       1       1       2       1       1       2       1       1       2       1
       1       2       1       1       2       1       1       2       1       1
       2       1       1       2       1       1       2       1       1       2
       1       1       2       1       1       2       1       1       2       1
       1       2       1       1       2       1       1       2       1       1
       2       1       1       2       1       1       2       1       1       2
       1       1       2       1       1       2       1       1       2       1
       1       2       1       1       2       1       1       2       1       1
       2       1       1       2       1       1       2       1       1       2
       1       1       2       1       1       2       1       1       2       1
       1       2       1       1       2       1       1       2       1       1
       2       1       1       2       1       1       2       1       1       2
       1       1       2       1       1       2       1       1       2       1
       1       2       1       1       2       1       1       2       1       1
       2       1       1       2       1       1       2       1       1       2
       1       1       2       1       1       2       1       1       2       1
       1       2       1       1       2       1       1       2       1       1
       2       1       1       2       1       1       2       1       1       2
       1       1       2       1       1       2       1       1       2       1
       1       2       1       1       2       1       1       2       1       1
       2       1       1       2       1       1       2       1       1       2
       1       1       2       1       1       2       1       1       2       1
       1       2       1       1       2       1       1       2       1       1
       2       1       1       2       1       1       2       1       1       2
       1       1       2       1       1       2       1       1       2       1
       1       2       1       1       2       1       1       2       1       1
       2       1       1       2       1       1       2       1       1       2
       1       1       2       1       1       2       1       1       2       1
       1       2       1       1       2       1       1       2       1       1
       2       1       1       2       1       1       2       1       1       2
       1       1       2       1       1       2       1       1       2       1
       1       2       1       1       2       1       1       2       1       1
       2       1       1       2       1       1       2       1       1       2
       1       1       2       1       1       2       1       1       2       1
       1       2       1       1       2       1       1       2       1       1
       2       1       1       2       1       1       2       1       1       2
       1       1       2       1       1       2       1       1       2       1
       1       2       1       1       2       1       1       2       1       1
       2       1       1       2       1       1       2       1       1       2
       1       1       2       1       1       2       1       1       2       1
       1       2       1       1       2       1       1       2       1       1
       2       1       1       2       1       1       2       1       1       2
       1       1       2       1       1       2       1       1       2       1
       1       2       1       1       2       1       1       2       1       1
       2       1       1       2       1       1       2       1       1       2
       1       1       2       1       1       2       1       1       2       1
       1       2       1       1       2       1       1       2       1       1
       2       1       1       2       1       1       2       1       1       2
       1       1       2       1       1       2       1       1       2       1
       1       2       1       1       2       1       1       2       1       1
       2       1       1       2       1       1       2       1       1       2
       1       1       2       1       1       2       1       1       2       1
       1       2       1       1       2       1       1       2       1       1
       2       1       1       2       1       1       2       1       1       2
       1       1       2       1       1       2       1       1       2       1
       1       2       1       1       2       1       1       2       1       1
       2       1       1       2       1       1       2       1       1       2
       1       1       2       1       1       2       1       1       2       1
       1       2       1       1       2       1       1       2       1       1
       2       1       1       2       1       1       2       1       1       2
       1       1       2       1       1       2       1       1       2       1
       1       2       1       1       2       1       1       2       1       1
       2       1       1       2       1       1       2       1       1       2
       1       1       2       1       1       2       1       1       2       1
       1       2       1       1       2       1       1       2       1       1
       2       1       1       2       1       1       2       1       1       2
       1       1       2       1       1       2       1       1       2       1
       1       2       1       1       2       1       1       2       1       1
       2       1       1       2       1       1       2       1       1       2
       1       1       2       1       1       2       1       1       2       1
       1       2       1       1       2       1       1       2       1       1
       2       1       1       2       1       1       2       1       1       2
       1       1       2       1       1       2       1       1       2       1
       1       2       1       1       2       1       1       2       1       1
       2       1       1       2       1       1       2       1       1       2
       1       1       2       1       1       2       1       1       2       1
       1       2       1       1       2       1       1       2       1       1
       2       1       1       2       1       1       2       1       1       2
       1       1       2       1       1       2       1       1       2       1
       1       2       1       1       2       1       1       2       1       1
       2       1       1       2       1       1       2       1       1       2
       1       1       2       1       1       2       1       1       2       1
       1       2       1       1       2       1       1       2       1       1
       2       1       1       2       1       1       2       1       1       2
       1       1       2       1       1       2       1       1       2       1
       1       2       1       1       2       1       1       2       1       1
       2       1       1       2       1       1       2       1       1       2
       1       1       2       1       1       2       1       1       2       1
       1       2       1       1       2       1       1       2       1       1
       2       1       1       2       1       1       2       1       1       2
       1       1       2       1       1       2       1       1       2       1
       1       2       1       1       2       1       1       2       1       1
       2       1       1       2       1       1       2       1       1       2
       1       1       2       1       1       2       1       1       2       1
       1       2       1       1       2       1       1       2       1       1
       2       1       1       2       1       1       2       1       1       2
       1       1       2       1       1       2       1       1       2       1
       1       2       1       1       2       1       1       2       1       1
       2       1       1       2       1       1       2       1       1       2
       1       1       2       1       1       2       1       1       2       1
       1       2       1       1       2       1       1       2       1       1
       2       1       1       2       1       1       2       1       1       2
       1       1       2       1       1       2       1       1       2       1
       1       2       1       1       2       1       1       2       1       1
       2       1       1       2       1       1       2       1       1       2
       1       1       2       1       1       2       1       1       2       1
       1       2       1       1       2       1       1       2       1       1
       2       1       1       2       1       1       2       1       1       2
       1       1       2       1       1       2       1       1       2       1
       1       2       1       1       2       1       1       2       1       1
       2       1       1       2       1       1       2       1       1       2
       1       1       2       1       1       2       1       1       2       1
       1       2       1       1       2       1       1       2       1       1
       2       1       1       2       1       1       2       1       1       2
       1       1       2       1       1       2       1       1       2       1
       1       2       1       1       2       1       1       2       1       1
       2       1       1       2       1       1       2       1       1       2
       1       1       2       1       1       2       1       1       2       1
       1       2       1       1       2       1       1       2       1       1
       2       1       1       2       1       1       2       1       1       2
       1       1       2       1       1       2       1       1       2       1
       1       2       1       1       2       1       1       2       1       1
       2       1       1       2       1       1       2       1       1       2
       1       1       2       1       1       2       1       1       2       1
       1       2       1       1       2       1       1       2       1       1
       2       1       1       2       1       1       2       1       1       2
       1       1       2       1       1       2       1       1       2       1
       1       2       1       1       2       1       1       2       1       1
       2       1       1       2       1       1       2       1       1       2
       1       1       2       1       1       2       1       1       2       1
       1       2       1       1       2       1       1       2       1       1
       2       1       1       2       1       1       2       1       1       2
       1       1       2       1       1       2       1       1       2       1
       1       2       1       1       2       1       1       2       1       1
       2       1       1       2       1       1       2       1       1       2
       1       1       2       1       1       2       1       1       2       1
       1       2       1       1       2       1       1       2       1       1
       2       1       1       2       1       1       2       1       1       2
       1       1       2       1       1       2       1       1       2       1
       1       2       1       1       2       1       1       2       1       1
       2       1       1       2       1       1       2       1       1       2
       1       1       2       1       1       2       1       1       2       1
       1       2       1       1       2       1       1       2       1       1
       2       1       1       2       1       1       2       1       1       2
       1       1       2       1       1       2       1       1       2       1
       1       2       1       1       2       1       1       2       1       1
       2       1       1       2       1       1       2       1       1       2
       1       1       2       1       1       2       1       1       2       1
       1       2       1       1       2       1       1       2       1       1
       2       1       1       2       1       1       2       1       1       2
       1       1       2       1       1       2       1       1       2       1
       1       2       1       1       2       1       1       2       1       1
       2       1       1       2       1       1       2       1       1       2
       1       1       2       1       1       2       1       1       2       1
       1       2       1       1       2       1       1       2       1       1
       2       1       1       2       1       1       2       1       1       2
       1       1       2       1       1       2       1       1       2       1
       1       2       1       1       2       1       1       2       1       1
       2       1       1       2       1       1       2       1       1       2
       1       1       2       1       1       2       1       1       2       1
       1       2       1       1       2       1       1       2       1       1
       2       1       1       2       1       1       2       1       1       2
       1       1       2       1       1       2       1       1       2       1
       1       2       1       1       2       1       1       2       1       1
       2       1       1       2       1       1       2       1       1       2
       1       1       2       1       1       2       1       1       2       1
       1       2       1       1       2       1       1       2       1       1
       2       1       1       2       1       1       2       1       1       2
       1       1       2       1       1       2       1       1       2       1
       1       2       1       1       2       1       1       2       1       1
       2       1       1       2       1       1       2       1       1       2
       1       1       2       1       1       2       1       1       2       1
       1       2       1       1       2       1       1       2       1       1
       2       1       1       2       1       1       2       1       1       2
       1       1       2       1       1       2       1       1       2       1
       1       2       1       1       2       1       1       2       1       1
       2       1       1       2       1       1       2       1       1       2
       1       1       2       1       1       2       1       1       2       1
       1       2       1       1       2       1       1       2       1       1
       2       1       1       2       1       1       2       1       1       2
       1       1       2       1       1       2       1       1       2       1
       1       2       1       1       2       1       1       2       1       1
       2       1       1       2       1       1       2       1       1       2
       1       1       2       1       1       2       1       1       2       1
       1       2       1       1       2       1       1       2       1       1
       2       1       1       2       1       1       2       1       1       2
       1       1       2       1       1       2       1       1       2       1
       1       2       1       1       2       1       1       2       1       1
       2       1       1       2       1       1       2       1       1       2
       1       1       2       1       1       2       1       1       2       1
       1       2       1       1       2       1       1       2       1       1
       2       1       1       2       1       1       2       1       1       2
       1       1       2       1       1       2       1       1       2       1
       1       2       1       1       2       1       1       2       1       1
       2       1       1       2       1       1       2       1       1       2
       1       1       2       1       1       2       1       1       2       1
       1       2       1       1       2       1       1       2       1       1
       2       1       1       2       1       1       2       1       1       2
       1       1       2       1       1       2       1       1       2       1
       1       2       1       1       2       1       1       2       1       1
       2       1       1       2       1       1       2       1       1       2
       1       1       2       1       1       2       1       1       2       1
       1       2       1       1       2       1       1       2       1       1
       2       1       1       2       1       1       2       1       1       2
       1       1       2       1       1       2       1       1       2       1
       1       2       1       1       2       1       1       2       1       1
       2       1       1       2       1       1       2       1       1       2
       1       1       2       1       1       2       1       1       2       1
       1       2       1       1       2       1       1       2       1       1
       2       1       1       2       1       1       2       1       1       2
       1       1       2       1       1       2       1       1       2       1
       1       2       1       1       2       1       1       2       1       1
       2       1       1       2       1       1       2       1       1       2
       1       1       2       1       1       2       1       1       2       1
       1       2       1       1       2       1       1       2       1       1
       2       1       1       2       1       1       2       1       1       2
       1       1       2       1       1       2       1       1       2       1
       1       2       1       1       2       1       1       2       1       1
       2       1       1       2       1       1       2       1       1       2
       1       1       2       1       1       2       1       1       2       1
       1       2       1       1       2       1       1       2       1       1
       2       1       1       2       1       1       2       1       1       2
       1       1       2       1       1       2       1       1       2       1
       1       2       1       1       2       1       1       2       1       1
       2       1       1       2       1       1       2       1       1       2
       1       1       2       1       1       2       1       1       2       1
       1       2       1       1       2       1       1       2       1       1
       2       1       1       2       1       1       2       1       1       2
       1       1       2       1       1       2       1       1       2       1
       1       2       1       1       2       1       1       2       1       1
       2       1       1       2       1       1       2       1       1       2
       1       1       2       1       1       2       1       1       2       1
       1       2       1       1       2       1       1       2       1       1
       2       1       1       2       1       1       2       1       1       2
       1       1       2       1       1       2       1       1       2       1
       1       2       1       1       2       1       1       2       1       1
       2       1       1       2       1       1       2       1       1       2
       1       1       2       1       1       2       1       1       2       1
       1       2       1       1       2       1       1       2       1       1
       2       1       1       2       1       1       2       1       1       2
       1       1       2       1       1       2       1       1       2       1
       1       2       1       1       2       1       1       2       1       1
       2       1       1       2       1       1       2       1       1       2
       1       1       2       1       1       2       1       1       2       1
       1       2       1       1       2       1       1       2       1       1
       2       1       1       2       1       1       2       1       1       2
       1       1       2       1       1       2       1       1       2       1
       1       2       1       1       2       1       1       2       1       1
       2       1       1       2       1       1       2       1       1       2
       1       1       2       1       1       2       1       1       2       1
       1       2       1       1       2       1       1       2       1       1
       2       1       1       2       1       1       2       1       1       2
       1       1       2       1       1       2       1       1       2       1
       1       2       1       1       2       1       1       2       1       1
       2       1       1       2       1       1       2       1       1       2
       1       1       2       1       1       2       1       1       2       1
       1       2       1       1       2       1       1       2       1       1
       2       1       1       2       1       1       2       1       1       2
       1       1       2       1       1       2       1       1       2       1
       1       2       1       1       2       1       1       2       1       1
       2       1       1       2       1       1       2       1       1       2
       1       1       2       1       1       2       1       1       2       1
       1       2       1       1       2       1       1       2       1       1
       2       1       1       2       1       1       2       1       1       2
       1       1       2       1       1       2       1       1       2       1
       1       2       1       1       2       1       1       2       1       1
       2       1       1       2       1       1       2       1       1       2
       1       1       2       1       1       2       1       1       2       1
       1       2       1       1       2       1       1       2       1       1
       2       1       1       2       1       1       2       1       1       2
       1       1       2       1       1       2       1       1       2       1
       1       2       1       1       2       1       1       2       1       1
       2       1       1       2       1       1       2       1       1       2
       1       1       2       1       1       2       1       1       2       1
       1       2       1       1       2       1       1       2       1       1
       2       1       1       2       1       1       2       1       1       2
       1       1       2       1       1       2       1       1       2       1
       1       2       1       1       2       1       1       2       1       1
       2       1       1       2       1       1       2       1       1       2
       1       1       2       1       1       2       1       1       2       1
       1       2       1       1       2       1       1       2       1       1
       2       1       1       2       1       1       2       1       1       2
       1       1       2       1       1       2       1       1       2       1
       1       2       1       1       2       1       1       2       1       1
       2       1       1       2       1       1       2       1       1       2
       1       1       2       1       1       2       1       1       2       1
       1       2       1       1       2       1       1       2       1       1
       2       1       1       2       1       1       2       1       1       2
       1       1       2       1       1       2       1       1       2       1
       1       2       1       1       2       1       1       2       1       1
       2       1       1       2       1       1       2       1       1       2
       1       1       2       1       1       2       1       1       2       1
       1       2       1       1       2       1       1       2       1       1
       2       1       1       2       1       1       2       1       1       2
       1       1       2       1       1       2       1       1       2       1
       1       2       1       1       2       1       1       2       1       1
       2       1       1       2       1       1       2       1       1       2
       1       1       2       1       1       2       1       1       2       1
       1       2       1       1       2       1       1       2       1       1
       2       1       1       2       1       1       2       1       1       2
       1       1       2       1       1       2       1       1       2       1
       1       2       1       1       2       1       1       2       1       1
       2       1       1       2       1       1       2       1       1       2
       1       1       2       1       1       2       1       1       2       1
       1       2       1       1       2       1       1       2       1       1
       2       1       1       2       1       1       2       1       1       2
       1       1       2       1       1       2       1       1       2       1
       1       2       1       1       2       1       1       2       1       1
       2       1       1       2       1       1       2       1       1       2
       1       1       2       1       1       2       1       1       2       1
       1       2       1       1       2       1       1       2       1       1
       2       1       1       2       1       1       2       1       1       2
       1       1       2       1       1       2       1       1       2       1
       1       2       1       1       2       1       1       2       1       1
       2       1       1       2       1       1       2       1       1       2
       1       1       2       1       1       2       1       1       2       1
       1       2       1       1       2       1       1       2       1       1
       2       1       1       2       1       1       2       1       1       2
       1       1       2       1       1       2       1       1       2       1
       1       2       1       1       2       1       1       2       1       1
       2       1       1       2       1       1       2       1       1       2
       1       1       2       1       1       2       1       1       2       1
       1       2       1       1       2       1       1       2       1       1
       2       1       1       2       1       1       2       1       1       2
       1       1       2       1       1       2       1       1       2       1
       1       2       1       1       2       1       1       2       1       1
       2       1       1       2       1       1       2       1       1       2
       1       1       2       1       1       2       1       1       2       1
       1       2       1       1       2       1       1       2       1       1
       2       1       1       2       1       1       2       1       1       2
       1       1       2       1       1       2       1       1       2       1
       1       2       1       1       2       1       1       2       1       1
       2       1       1       2       1       1       2       1       1       2
       1       1       2       1       1       2       1       1       2       1
       1       2       1       1       2       1       1       2       1       1
       2       1       1       2       1       1       2       1       1       2
       1       1       2       1       1       2       1       1       2       1
       1       2       1       1       2       1       1       2       1       1
       2       1       1       2       1       1       2       1       1       2
       1       1       2       1       1       2       1       1       2       1
       1       2       1       1       2       1       1       2       1       1
       2       1       1       2       1       1       2       1       1       2
       1       1       2       1       1       2       1       1       2       1
       1       2       1       1       2       1       1       2       1       1
       2       1       1       2       1       1       2       1       1       2
       1       1       2       1       1       2       1       1       2       1
       1       2       1       1       2       1       1       2       1       1
       2       1       1       2       1       1       2       1       1       2
       1       1       2       1       1       2       1       1       2       1
       1       2       1       1       2       1       1       2       1       1
       2       1       1       2       1       1       2       1       1       2
       1       1       2       1       1       2       1       1       2       1
       1       2       1       1       2       1       1       2       1       1
       2       1       1       2       1       1       2       1       1       2
       1       1       2       1       1       2       1       1       2       1
       1       2       1       1       2       1       1       2       1       1
       2       1       1       2       1       1       2       1       1       2
       1       1       2       1       1       2       1       1       2       1
       1       2       1       1       2       1       1       2       1       1
       2       1       1       2       1       1       2       1       1       2
       1       1       2       1       1       2       1       1       2       1
       1       2       1       1       2       1       1       2       1       1
       2       1       1       2       1       1       2       1       1       2
       1       1       2       1       1       2       1       1       2       1
       1       2       1       1       2       1       1       2       1       1
       2       1       1       2       1       1       2       1       1       2
       1       1       2       1       1       2       1       1       2       1
       1       2       1       1       2       1       1       2       1       1
       2       1       1       2       1       1       2       1       1       2
       1       1       2       1       1       2       1       1       2       1
       1       2       1       1       2       1       1       2       1       1
       2       1       1       2       1       1       2       1       1       2
       1       1       2       1       1       2       1       1       2       1
       1       2       1       1       2       1       1       2       1       1
       2       1       1       2       1       1       2       1       1       2
       1       1       2       1       1       2       1       1       2       1
       1       2       1       1       2       1       1       2       1       1
       2       1       1       2       1       1       2       1       1       2
       1       1       2       1       1       2       1       1       2       1
       1       2       1       1       2       1       1       2       1       1
       2       1       1       2       1       1       2       1       1       2
       1       1       2       1       1       2       1       1       2       1
       1       2       1       1       2       1       1       2       1       1
       2       1       1       2       1       1       2       1       1       2
       1       1       2       1       1       2       1       1       2       1
       1       2       1       1       2       1       1       2       1       1
       2       1       1       2       1       1       2       1       1       2
       1       1       2       1       1       2       1       1       2       1
       1       2       1       1       2       1       1       2       1       1
       2       1       1       2       1       1       2       1       1       2
       1       1       2       1       1       2       1       1       2       1
       1       2       1       1       2       1       1       2       1       1
       2       1       1       2       1       1       2       1       1       2
       1       1       2       1       1       2       1       1       2       1
       1       2       1       1       2       1       1       2       1       1
       2       1       1       2       1       1       2       1       1       2
       1       1       2       1       1       2       1       1       2       1
       1       2       1       1       2       1       1       2       1       1
       2       1       1       2       1       1       2       1       1       2
       1       1       2       1       1       2       1       1       2       1
       1       2       1       1       2       1       1       2       1       1
       2       1       1       2       1       1       2       1       1       2
       1       1       2       1       1       2       1       1       2       1
       1       2       1       1       2       1       1       2       1       1
       2       1       1       2       1       1       2       1       1       2
       1       1       2       1       1       2       1       1       2       1
       1       2       1       1       2       1       1       2       1       1
       2       1       1       2       1       1       2       1       1       2
       1       1       2       1       1       2       1       1       2       1
       1       2       1       1       2       1       1       2       1       1
       2       1       1       2       1       1       2       1       1       2
       1       1       2       1       1       2       1       1       2       1
       1       2       1       1       2       1       1       2       1       1
       2       1       1       2       1       1       2       1       1       2
       1       1       2       1       1       2       1       1       2       1
       1       2       1       1       2       1       1       2       1       1
       2       1       1       2       1       1       2       1       1       2
       1       1       2       1       1       2       1       1       2       1
       1       2       1       1       2       1       1       2       1       1
       2       1       1       2       1       1       2       1       1       2
       1       1       2       1       1       2       1       1       2       1
       1       2       1       1       2       1       1       2       1       1
       2       1       1       2       1       1       2       1       1       2
       1       1       2       1       1       2       1       1       2       1
       1       2       1       1       2       1       1       2       1       1
       2       1       1       2       1       1       2       1       1       2
       1       1       2       1       1       2       1       1       2       1
       1       2       1       1       2       1       1       2       1       1
       2       1       1       2       1       1       2       1       1       2
       1       1       2       1       1       2       1       1       2       1
       1       2       1       1       2       1       1       2       1       1
       2       1       1       2       1       1       2       1       1       2
       1       1       2       1       1       2       1       1       2       1
       1       2       1       1       2       1       1       2       1       1
       2       1       1       2       1       1       2       1       1       2
       1       1       2       1       1       2       1       1       2       1
       1       2       1       1       2       1       1       2       1       1
       2       1       1       2       1       1       2       1       1       2
       1       1       2       1       1       2       1       1       2       1
       1       2       1       1       2       1       1       2       1       1
       2       1       1       2       1       1       2       1       1       2
       1       1       2       1       1       2       1       1       2       1
       1       2       1       1       2       1       1       2       1       1
       2       1       1       2       1       1       2       1       1       2
       1       1       2       1       1       2       1       1       2       1
       1       2       1       1       2       1       1       2       1       1
       2       1       1       2       1       1       2       1       1       2
       1       1       2       1       1       2       1       1       2       1
       1       2       1       1       2       1       1       2       1       1
       2       1       1       2       1       1       2       1       1       2
       1       1       2       1       1       2       1       1       2       1
       1       2       1       1       2       1       1       2       1       1
       2       1       1       2       1       1       2       1       1       2
       1       1       2       1       1       2       1       1       2       1
       1       2       1       1       2       1       1       2       1       1
       2       1       1       2       1       1       2       1       1       2
       1       1       2       1       1       2       1       1       2       1
       1       2       1       1       2       1       1       2       1       1
       2       1       1       2       1       1       2       1       1       2
       1       1       2       1       1       2       1       1       2       1
       1       2       1       1       2       1       1       2       1       1
       2       1       1       2       1       1       2       1       1       2
       1       1       2       1       1       2       1       1       2       1
       1       2       1       1       2       1       1       2       1       1
       2       1       1       2       1       1       2       1       1       2
       1       1       2       1       1       2       1       1       2       1
       1       2       1       1       2       1       1       2       1       1
       2       1       1       2       1       1       2       1       1       2
       1       1       2       1       1       2       1       1       2       1
       1       2       1       1       2       1       1       2       1       1
       2       1       1       2       1       1       2       1       1       2
       1       1       2       1       1       2       1       1       2       1
       1       2       1       1       2       1       1       2       1       1
       2       1       1       2       1       1       2       1       1       2
       1       1       2       1       1       2       1       1       2       1
       1       2       1       1       2       1       1       2       1       1
       2       1       1       2       1       1       2       1       1       2
       1       1       2       1       1       2       1       1       2       1
       1       2       1       1       2       1       1       2       1       1
       2       1       1       2       1       1       2       1       1       2
       1       1       2       1       1       2       1       1       2       1
       1       2       1       1       2       1       1       2       1       1
       2       1       1       2       1       1       2       1       1       2
       1       1       2       1       1       2       1       1       2       1
       1       2       1       1       2       1       1       2       1       1
       2       1       1       2       1       1       2       1       1       2
       1       1       2       1       1       2       1       1       2       1
       1       2       1       1       2       1       1       2       1       1
       2       1       1       2       1       1       2       1       1       2
       1       1       2       1       1       2       1       1       2       1
       1       2       1       1       2       1       1       2       1       1
       2       1       1       2       1       1       2       1       1       2
       1       1       2       1       1       2       1       1       2       1
       1       2       1       1       2       1       1       2       1       1
       2       1       1       2       1       1       2       1       1       2
       1       1       2       1       1       2       1       1       2       1
       1       2       1       1       2       1       1       2       1       1
       2       1       1       2       1       1       2       1       1       2
       1       1       2       1       1       2       1       1       2       1
       1       2       1       1       2       1       1       2       1       1
       2       1       1       2       1       1       2       1       1       2
       1       1       2       1       1       2       1       1       2       1
       1       2       1       1       2       1       1       2       1       1
       2       1       1       2       1       1       2       1       1       2
       1       1       2       1       1       2       1       1       2       1
       1       2       1       1       2       1       1       2       1       1
       2       1       1       2       1       1       2       1       1       2
       1       1       2       1       1       2       1       1       2       1
       1       2       1       1       2       1       1       2       1       1
       2       1       1       2       1       1       2       1       1       2
       1       1       2       1       1       2       1       1       2       1
       1       2       1       1       2       1       1       2       1       1
       2       1       1       2       1       1       2       1       1       2
       1       1       2       1       1       2       1       1       2       1
       1       2       1       1       2       1       1       2       1       1
       2       1       1       2       1       1       2       1       1       2
       1       1       2       1       1       2       1       1       2       1
       1       2       1       1       2       1       1       2       1       1
       2       1       1       2       1       1       2       1       1       2
       1       1       2       1       1       2       1       1       2       1
       1       2       1       1       2       1       1       2       1       1
       2       1       1       2       1       1       2       1       1       2
       1       1       2       1       1       2       1       1       2       1
       1       2       1       1       2       1       1       2       1       1
       2       1       1       2       1       1       2       1       1       2
       1       1       2       1       1       2       1       1       2       1
       1       2       1       1       2       1       1       2       1       1
       2       1       1       2       1       1       2       1       1       2
       1       1       2       1       1       2       1       1       2       1
       1       2       1       1       2       1       1       2       1       1
       2       1       1       2       1       1       2       1       1       2
       1       1       2       1       1       2       1       1       2       1
       1       2       1       1       2       1       1       2       1       1
       2       1       1       2       1       1       2       1       1       2
       1       1       2       1       1       2       1       1       2       1
       1       2       1       1       2       1       1       2       1       1
       2       1       1       2       1       1       2       1       1       2
       1       1       2       1       1       2       1       1       2       1
       1       2       1       1       2       1       1       2       1       1
       2       1       1       2       1       1       2       1       1       2
       1       1       2       1       1       2       1       1       2       1
       1       2       1       1       2       1       1       2       1       1
       2       1       1       2       1       1       2       1       1       2
       1       1       2       1       1       2       1       1       2       1
       1       2       1       1       2       1       1       2       1       1
       2       1       1       2       1       1       2       1       1       2
       1       1       2       1       1       2       1       1       2       1
       1       2       1       1       2       1       1       2       1       1
       2       1       1       2       1       1       2       1       1       2
       1       1       2       1       1       2       1       1       2       1
       1       2       1       1       2       1       1       2       1       1
       2       1       1       2       1       1       2       1       1       2
       1       1       2       1       1       2       1       1       2       1
       1       2       1       1       2       1       1       2       1       1
       2       1       1       2       1       1       2       1       1       2
       1       1       2       1       1       2       1       1       2       1
       1       2       1       1       2       1       1       2       1       1
       2       1       1       2       1       1       2       1       1       2
       1       1       2       1       1       2       1       1       2       1
       1       2       1       1       2       1       1       2       1       1
       2       1       1       2       1       1       2       1       1       2
       1       1       2       1       1       2       1       1       2       1
       1       2       1       1       2       1       1       2       1       1
       2       1       1       2       1       1       2       1       1       2
       1       1       2       1       1       2       1       1       2       1
       1       2       1       1       2       1       1       2       1       1
       2       1       1       2       1       1       2       1       1       2
       1       1       2       1       1       2       1       1       2       1
       1       2       1       1       2       1       1       2       1       1
       2       1       1       2       1       1       2       1       1       2
       1       1       2       1       1       2       1       1       2       1
       1       2       1       1       2       1       1       2       1       1
       2       1       1       2       1       1       2       1       1       2
       1       1       2       1       1       2       1       1       2       1
       1       2       1       1       2       1       1       2       1       1
       2       1       1       2       1       1       2       1       1       2
       1       1       2       1       1       2       1       1       2       1
       1       2       1       1       2       1       1       2       1       1
       2       1       1       2       1       1       2       1       1       2
       1       1       2       1       1       2       1       1       2       1
       1       2       1       1       2       1       1       2       1       1
       2       1       1       2       1       1       2       1       1       2
       1       1       2       1       1       2       1       1       2       1
       1       2       1       1       2       1       1       2       1       1
       2       1       1       2       1       1       2       1       1       2
       1       1       2       1       1       2       1       1       2       1
       1       2       1       1       2       1       1       2       1       1
       2       1       1       2       1       1       2       1       1       2
       1       1       2       1       1       2       1       1       2       1
       1       2       1       1       2       1       1       2       1       1
       2       1       1       2       1       1       2       1       1       2
       1       1       2       1       1       2       1       1       2       1
       1       2       1       1       2       1       1       2       1       1
       2       1       1       2       1       1       2       1       1       2
       1       1       2       1       1       2       1       1       2       1
       1       2       1       1       2       1       1       2       1       1
       2       1       1       2       1       1       2       1       1       2
       1       1       2       1       1       2       1       1       2       1
       1       2       1       1       2       1       1       2       1       1
       2       1       1       2       1       1       2       1       1       2
       1       1       2       1       1       2       1       1       2       1
       1       2       1       1       2       1       1       2       1       1
       2       1       1       2       1       1       2       1       1       2
       1       1       2       1       1       2       1       1       2       1
       1       2       1       1       2       1       1       2       1       1
       2       1       1       2       1       1       2       1       1       2
       1       1       2       1       1       2       1       1       2       1
       1       2       1       1       2       1       1       2       1       1
       2       1       1       2       1       1       2       1       1       2
       1       1       2       1       1       2       1       1       2       1
       1       2       1       1       2       1       1       2       1       1
       2       1       1       2       1       1       2       1       1       2
       1       1       2       1       1       2       1       1       2       1
       1       2       1       1       2       1       1       2       1       1
       2       1       1       2       1       1       2       1       1       2
       1       1       2       1       1       2       1       1       2       1
       1       2       1       1       2       1       1       2       1       1
       2       1       1       2       1       1       2       1       1       2
       1       1       2       1       1       2       1       1       2       1
       1       2       1       1       2       1       1       2       1       1
       2       1       1       2       1       1       2       1       1       2
       1       1       2       1       1       2       1       1       2       1
       1       2       1       1       2       1       1       2       1       1
       2       1       1       2       1       1       2       1       1       2
       1       1       2       1       1       2       1       1       2       1
       1       2       1       1       2       1       1       2       1       1
       2       1       1       2       1       1       2       1       1       2
       1       1       2       1       1       2       1       1       2       1
       1       2       1       1       2       1       1       2       1       1
       2       1       1       2       1       1       2       1       1       2
       1       1       2       1       1       2       1       1       2       1
       1       2       1       1       2       1       1       2       1       1
       2       1       1       2       1       1       2       1       1       2
       1       1       2       1       1       2       1       1       2       1
       1       2       1       1       2       1       1       2       1       1
       2       1       1       2       1       1       2       1       1       2
       1       1       2       1       1       2       1       1       2       1
       1       2       1       1       2       1       1       2       1       1
       2       1       1       2       1       1       2       1       1       2
       1       1       2       1       1       2       1       1       2       1
       1       2       1       1       2       1       1       2       1       1
       2       1       1       2       1       1       2       1       1       2
       1       1       2       1       1       2       1       1       2       1
       1       2       1       1       2       1       1       2       1       1
       2       1       1       2       1       1       2       1       1       2
       1       1       2       1       1       2       1       1       2       1
       1       2       1       1       2       1       1       2       1       1
       2       1       1       2       1       1       2       1       1       2
       1       1       2       1       1       2       1       1       2       1
       1       2       1       1       2       1       1       2       1       1
       2       1       1       2       1       1       2       1       1       2
       1       1       2       1       1       2       1       1       2       1
       1       2       1       1       2       1       1       2       1       1
       2       1       1       2       1       1       2       1       1       2
       1       1       2       1       1       2       1       1       2       1
       1       2       1       1       2       1       1       2       1       1
       2       1       1       2       1       1       2       1       1       2
       1       1       2       1       1       2       1       1       2       1
       1       2       1       1       2       1       1       2       1       1
       2       1       1       2       1       1       2       1       1       2
       1       1       2       1       1       2       1       1       2       1
       1       2       1       1       2       1       1       2       1       1
       2       1       1       2       1       1       2       1       1       2
       1       1       2       1       1       2       1       1       2       1
       1       2       1       1       2       1       1       2       1       1
       2       1       1       2       1       1       2       1       1       2
       1       1       2       1       1       2       1       1       2       1
       1       2       1       1       2       1       1       2       1       1
       2       1       1       2       1       1       2       1       1       2
       1       1       2       1       1       2       1       1       2       1
       1       2       1       1       2       1       1       2       1       1
       2       1       1       2       1       1       2       1       1       2
       1       1       2       1       1       2       1       1       2       1
       1       2       1       1       2       1       1       2       1       1
       2       1       1       2       1       1       2       1       1       2
       1       1       2       1       1       2       1       1       2       1
       1       2       1       1       2       1       1       2       1       1
       2       1       1       2       1       1       2       1       1       2
       1       1       2       1       1       2       1       1       2       1
       1       2       1       1       2       1       1       2       1       1
       2       1       1       2       1       1       2       1       1       2
       1       1       2       1       1       2       1       1       2       1
       1       2       1       1       2       1       1       2       1       1
       2       1       1       2       1       1       2       1       1       2
       1       1       2       1       1       2       1       1       2       1
       1       2       1       1       2       1       1       2       1       1
       2       1       1       2       1       1       2       1       1       2
       1       1       2       1       1       2       1       1       2       1
       1       2       1       1       2       1       1       2       1       1
       2       1       1       2       1       1       2       1       1       2
       1       1       2       1       1       2       1       1       2       1
       1       2       1       1       2       1       1       2       1       1
       2       1       1       2       1       1       2       1       1       2
       1       1       2       1       1       2       1       1       2       1
       1       2       1       1       2       1       1       2       1       1
       2       1       1       2       1       1       2       1       1       2
       1       1       2       1       1       2       1       1       2       1
       1       2       1       1       2       1       1       2       1       1
       2       1       1       2       1       1       2       1       1       2
       1       1       2       1       1       2       1       1       2       1
       1       2       1       1       2       1       1       2       1       1
       2       1       1       2       1       1       2       1       1       2
       1       1       2       1       1       2       1       1       2       1
       1       2       1       1       2       1       1       2       1       1
       2       1       1       2       1       1       2       1       1       2
       1       1       2       1       1       2       1       1       2       1
       1       2       1       1       2       1       1       2       1       1
       2       1       1       2       1       1       2       1       1       2
       1       1       2       1       1       2       1       1       2       1
       1       2       1       1       2       1       1       2       1       1
       2       1       1       2       1       1       2       1       1       2
       1       1       2       1       1       2       1       1       2       1
       1       2       1       1       2       1       1       2       1       1
       2       1       1       2       1       1       2       1       1       2
       1       1       2       1       1       2       1       1       2       1
       1       2       1       1       2       1       1       2       1       1
       2       1       1       2       1       1       2       1       1       2
       1       1       2       1       1       2       1       1       2       1
       1       2       1       1       2       1       1       2       1       1
       2       1       1       2       1       1       2       1       1       2
       1       1       2       1       1       2       1       1       2       1
       1       2       1       1       2       1       1       2       1       1
       2       1       1       2       1       1       2       1       1       2
       1       1       2       1       1       2       1       1       2       1
       1       2       1       1       2       1       1       2       1       1
       2       1       1       2       1       1       2       1       1       2
       1       1       2       1       1       2       1       1       2       1
       1       2       1       1       2       1       1       2       1       1
       2       1       1       2       1       1       2       1       1       2
       1       1       2       1       1       2       1       1       2       1
       1       2       1       1       2       1       1       2       1       1
       2       1       1       2       1       1       2       1       1       2
       1       1       2       1       1       2       1       1       2       1
       1       2       1       1       2       1       1       2       1       1
       2       1       1       2       1       1       2       1       1       2
       1       1       2       1       1       2       1       1       2       1
       1       2       1       1       2       1       1       2       1       1
       2       1       1       2       1       1       2       1       1       2
       1       1       2       1       1       2       1       1       2       1
       1       2       1       1       2       1       1       2       1       1
       2       1       1       2       1       1       2       1       1       2
       1       1       2       1       1       2       1       1       2       1
       1       2       1       1       2       1       1       2       1       1
       2       1       1       2       1       1       2       1       1       2
       1       1       2       1       1       2       1       1       2       1
       1       2       1       1       2       1       1       2       1       1
       2       1       1       2       1       1       2       1       1       2
       1       1       2       1       1       2       1       1       2       1
       1       2       1       1       2       1       1       2       1       1
       2       1       1       2       1       1       2       1       1       2
       1       1       2       1       1       2       1       1       2       1
       1       2       1       1       2       1       1       2       1       1
       2       1       1       2       1       1       2       1       1       2
       1       1       2       1       1       2       1       1       2       1
       1       2       1       1       2       1       1       2       1       1
       2       1       1       2       1       1       2       1       1       2
       1       1       2       1       1       2       1       1       2       1
       1       2       1       1       2       1       1       2       1       1
       2       1       1       2       1       1       2       1       1       2
       1       1       2       1       1       2       1       1       2       1
       1       2       1       1       2       1       1       2       1       1
       2       1       1       2       1       1       2       1       1       2
       1       1       2       1       1       2       1       1       2       1
       1       2       1       1       2       1       1       2       1       1
       2       1       1       2       1       1       2       1       1       2
       1       1       2       1       1       2       1       1       2       1
       1       2       1       1       2       1       1       2       1       1
       2       1       1       2       1       1       2       1       1       2
       1       1       2       1       1       2       1       1       2       1
       1       2       1       1       2       1       1       2       1       1
       2       1       1       2       1       1       2       1       1       2
       1       1       2       1       1       2       1       1       2       1
       1       2       1       1       2       1       1       2       1       1
       2       1       1       2       1       1       2       1       1       2
       1       1       2       1       1       2       1       1       2       1
       1       2       1       1       2       1       1       2       1       1
       2       1       1       2       1       1       2       1       1       2
       1       1       2       1       1       2       1       1       2       1
       1       2       1       1       2       1       1       2       1       1
       2       1       1       2       1       1       2       1       1       2
       1       1       2       1       1       2       1       1       2       1
       1       2       1       1       2       1       1       2       1       1
       2       1       1       2       1       1       2       1       1       2
       1       1       2       1       1       2       1       1       2       1
       1       2       1       1       2       1       1       2       1       1
       2       1       1       2       1       1       2       1       1       2
       1       1       2       1       1       2       1       1       2       1
       1       2       1       1       2       1       1       2       1       1
       2       1       1       2       1       1       2       1       1       2
       1       1       2       1       1       2       1       1       2       1
       1       2       1       1       2       1       1       2       1       1
       2       1       1       2       1       1       2       1       1       2
       1       1       2       1       1       2       1       1       2       1
       1       2       1       1       2       1       1       2       1       1
       2       1       1       2       1       1       2       1       1       2
       1       1       2       1       1       2       1       1       2       1
       1       2       1       1       2       1       1       2       1       1
       2       1       1       2       1       1       2       1       1       2
       1       1       2       1       1       2       1       1       2       1
       1       2       1       1       2       1       1       2       1       1
       2       1       1       2       1       1       2       1       1       2
       1       1       2       1       1       2       1       1       2       1
       1       2       1       1       2       1       1       2       1       1
       2       1       1       2       1       1       2       1       1       2
       1       1       2       1       1       2       1       1       2       1
       1       2       1       1       2       1       1       2       1       1
       2       1       1       2       1       1       2       1       1       2
       1       1       2       1       1       2       1       1       2       1
       1       2       1       1       2       1       1       2       1       1
       2       1       1       2       1       1       2       1       1       2
       1       1       2       1       1       2       1       1       2       1
       1       2       1       1       2       1       1       2       1       1
       2       1       1       2       1       1       2       1       1       2
       1       1       2       1       1       2       1       1       2       1
       1       2       1       1       2       1       1       2       1       1
       2       1       1       2       1       1       2       1       1       2
       1       1       2       1       1       2       1       1       2       1
       1       2       1       1       2       1       1       2       1       1
       2       1       1       2       1       1       2       1       1       2
       1       1       2       1       1       2       1       1       2       1
       1       2       1       1       2       1       1       2       1       1
       2       1       1       2       1       1       2       1       1       2
       1       1       2       1       1       2       1       1       2       1
       1       2       1       1       2       1       1       2       1       1
       2       1       1       2       1       1       2       1       1       2
       1       1       2       1       1       2       1       1       2       1
       1       2       1       1       2       1       1       2       1       1
       2       1       1       2       1       1       2       1       1       2
       1       1       2       1       1       2       1       1       2       1
       1       2       1       1       2       1       1       2       1       1
       2       1       1       2       1       1       2       1       1       2
       1       1       2       1       1       2       1       1       2       1
       1       2       1       1       2       1       1       2       1       1
       2       1       1       2       1       1       2       1       1       2
       1       1       2       1       1       2       1       1       2       1
       1       2       1       1       2       1       1       2       1       1
       2       1       1       2       1       1       2       1       1       2
       1       1       2       1       1       2       1       1       2       1
       1       2       1       1       2       1       1       2       1       1
       2       1       1       2       1       1       2       1       1       2
       1       1       2       1       1       2       1       1       2       1
       1       2       1       1       2       1       1       2       1       1
       2       1       1       2       1       1       2       1       1       2
       1       1       2       1       1       2       1       1       2       1
       1       2       1       1       2       1       1       2       1       1
       2       1       1       2       1       1       2       1       1       2
       1       1       2       1       1       2       1       1       2       1
       1       2       1       1       2       1       1       2       1       1
       2       1       1       2       1       1       2       1       1       2
       1       1       2       1       1       2       1       1       2       1
       1       2       1       1       2       1       1       2       1       1
       2       1       1       2       1       1       2       1       1       2
       1       1       2       1       1       2       1       1       2       1
       1       2       1       1       2       1       1       2       1       1
       2       1       1       2       1       1       2       1       1       2
       1       1       2       1       1       2       1       1       2       1
       1       2       1       1       2       1       1       2       1       1
       2       1       1       2       1       1       2       1       1       2
       1       1       2       1       1       2       1       1       2       1
       1       2       1       1       2       1       1       2       1       1
       2       1       1       2       1       1       2       1       1       2
       1       1       2       1       1       2       1       1       2       1
       1       2       1       1       2       1       1       2       1       1
       2       1       1       2       1       1       2       1       1       2
       1       1       2       1       1       2       1       1       2       1
       1       2       1       1       2       1       1       2       1       1
       2       1       1       2       1       1       2       1       1       2
       1       1       2       1       1       2       1       1       2       1
       1       2       1       1       2       1       1       2       1       1
       2       1       1       2       1       1       2       1       1       2
       1       1       2       1       1       2       1       1       2       1
       1       2       1       1       2       1       1       2       1       1
       2       1       1       2       1       1       2       1       1       2
       1       1       2       1       1       2       1       1       2       1
       1       2       1       1       2       1       1       2       1       1
       2       1       1       2       1       1       2       1       1       2
       1       1       2       1       1       2       1       1       2       1
       1       2       1       1       2       1       1       2       1       1
       2       1       1       2       1       1       2       1       1       2
       1       1       2       1       1       2       1       1       2       1
       1       2       1       1       2       1       1       2       1       1
       2       1       1       2       1       1       2       1       1       2
       1       1       2       1       1       2       1       1       2       1
       1       2       1       1       2       1       1       2       1       1
       2       1       1       2       1       1       2       1       1       2
       1       1       2       1       1       2       1       1       2       1
       1       2       1       1       2       1       1       2       1       1
       2       1       1       2       1       1       2       1       1       2
       1       1       2       1       1       2       1       1       2       1
       1       2       1       1       2       1       1       2       1       1
       2       1       1       2       1       1       2       1       1       2
       1       1       2       1       1       2       1       1       2       1
       1       2       1       1       2       1       1       2       1       1
       2       1       1       2       1       1       2       1       1       2
       1       1       2       1       1       2       1       1       2       1
       1       2       1       1       2       1       1       2       1       1
       2       1       1       2       1       1       2       1       1       2
       1       1       2       1       1       2       1       1       2       1
       1       2       1       1       2       1       1       2       1       1
       2       1       1       2       1       1       2       1       1       2
       1       1       2       1       1       2       1       1       2       1
       1       2       1       1       2       1       1       2       1       1
       2       1       1       2       1       1       2       1       1       2
       1       1       2       1       1       2       1       1       2       1
       1       2       1       1       2       1       1       2       1       1
       2       1       1       2       1       1       2       1       1       2
       1       1       2       1       1       2       1       1       2       1
       1       2       1       1       2       1       1       2       1       1
       2       1       1       2       1       1       2       1       1       2
       1       1       2       1       1       2       1       1       2       1
       1       2       1       1       2       1       1       2       1       1
       2       1       1       2       1       1       2       1       1       2
       1       1       2       1       1       2       1       1       2       1
       1       2       1       1       2       1       1       2       1       1
       2       1       1       2       1       1       2       1       1       2
       1       1       2       1       1       2       1       1       2       1
       1       2       1       1       2       1       1       2       1       1
       2       1       1       2       1       1       2       1       1       2
       1       1       2       1       1       2       1       1       2       1
       1       2       1       1       2       1       1       2       1       1
       2       1       1       2       1       1       2       1       1       2
       1       1       2       1       1       2       1       1       2       1
       1       2       1       1       2       1       1       2       1       1
       2       1       1       2       1       1       2       1       1       2
       1       1       2       1       1       2       1       1       2       1
       1       2       1       1       2       1       1       2       1       1
       2       1       1       2       1       1       2       1       1       2
       1       1       2       1       1       2       1       1       2       1
       1       2       1       1       2       1       1       2       1       1
       2       1       1       2       1       1       2       1       1       2
       1       1       2       1       1       2       1       1       2       1
       1       2       1       1       2       1       1       2       1       1
       2       1       1       2       1       1       2       1       1       2
       1       1       2       1       1       2       1       1       2       1
       1       2       1       1       2       1       1       2       1       1
       2       1       1       2       1       1       2       1       1       2
       1       1       2       1       1       2       1       1       2       1
       1       2       1       1       2       1       1       2       1       1
       2       1       1       2       1       1       2       1       1       2
       1       1       2       1       1       2       1       1       2       1
       1       2       1       1       2       1       1       2       1       1
       2       1       1       2       1       1       2       1       1       2
       1       1       2       1       1       2       1       1       2       1
       1       2       1       1       2       1       1       2       1       1
       2       1       1       2       1       1       2       1       1       2
       1       1       2       1       1       2       1       1       2       1
       1       2       1       1       2       1       1       2       1       1
       2       1       1       2       1       1       2       1       1       2
       1       1       2       1       1       2       1       1       2       1
       1       2       1       1       2       1       1       2       1       1
       2       1       1       2       1       1       2       1       1       2
       1       1       2       1       1       2       1       1       2       1
       1       2       1       1       2       1       1       2       1       1
       2       1       1       2       1       1       2       1       1       2
       1       1       2       1       1       2       1       1       2       1
       1       2       1       1       2       1       1       2       1       1
       2       1       1       2       1       1       2       1       1       2
       1       1       2       1       1       2       1       1       2       1
       1       2       1       1       2       1       1       2       1       1
       2       1       1       2       1       1       2       1       1       2
       1       1       2       1       1       2       1       1       2       1
       1       2       1       1       2       1       1       2       1       1
       2       1       1       2       1       1       2       1       1       2
       1       1       2       1       1       2       1       1       2       1
       1       2       1       1       2       1       1       2       1       1
       2       1       1       2       1       1       2       1       1       2
       1       1       2       1       1       2       1       1       2       1
       1       2       1       1       2       1       1       2       1       1
       2       1       1       2       1       1       2       1       1       2
       1       1       2       1       1       2       1       1       2       1
       1       2       1       1       2       1       1       2       1       1
       2       1       1       2       1       1       2       1       1       2
       1       1       2       1       1       2       1       1       2       1
       1       2       1       1       2       1       1       2       1       1
       2       1       1       2       1       1       2       1       1       2
       1       1       2       1       1       2       1       1       2       1
       1       2       1       1       2       1       1       2       1       1
       2       1       1       2       1       1       2       1       1       2
       1       1       2       1       1       2       1       1       2       1
       1       2       1       1       2       1       1       2       1       1
       2       1       1       2       1       1       2       1       1       2
       1       1       2       1       1       2       1       1       2       1
       1       2       1       1       2       1       1       2       1       1
       2       1       1       2       1       1       2       1       1       2
       1       1       2       1       1       2       1       1       2       1
       1       2       1       1       2       1       1       2       1       1
       2       1       1       2       1       1       2       1       1       2
       1       1       2       1       1       2       1       1       2       1
       1       2       1       1       2       1       1
%FLAG NONBONDED_PARM_INDEX                                                      
%FORMAT(10I8)                                                                   
       1       2       4       7      11      16      22      29      37      46
      56      67      79      92       2       3       5       8      12      17
      23      30      38      47      57      68      80      93       4       5
       6       9      13      18      24      31      39      48      58      69
      81      94       7       8       9      10      14      19      25      32
      40      49      59      70      82      95      11      12      13      14
      15      20      26      33      41      50      60      71      83      96
      16      17      18      19      20      21      27      34      42      51
      61      72      84      97      22      23      24      25      26      27
      28      35      43      52      62      73      85      98      29      30
      31      32      33      34      35      36      44      53      63      74
      86      99      37      38      39      40      41      42      43      44
      45      54      64      75      87     100      46      47      48      49
      50      51      52      53      54      55      65      76      88     101
      56      57      58      59      60      61      62      63      64      65
      66      77      89     102      67      68      69      70      71      72
      73      74      75      76      77      78      90     103      79      80
      81      82      83      84      85      86      87      88      89      90
      91     104      92      93      94      95      96      97      98      99
     100     101     102     103     104     105
%FLAG RESIDUE_LABEL                                                             
%FORMAT(20a4)                                                                   
PYR CPH MNF MON MON MON MON MON MON MON MON MNL CPT CPH MNF MON MON MON MON MON 
MON MON MON MNL CPT CPH MNF MON MON MON MON MON MON MON MON MNL CPT WAT WAT WAT 
WAT WAT WAT WAT WAT WAT WAT WAT WAT WAT WAT WAT WAT WAT WAT WAT WAT WAT WAT WAT 
WAT WAT WAT WAT WAT WAT WAT WAT WAT WAT WAT WAT WAT WAT WAT WAT WAT WAT WAT WAT 
WAT WAT WAT WAT WAT WAT WAT WAT WAT WAT WAT WAT WAT WAT WAT WAT WAT WAT WAT WAT 
WAT WAT WAT WAT WAT WAT WAT WAT WAT WAT WAT WAT WAT WAT WAT WAT WAT WAT WAT WAT 
WAT WAT WAT WAT WAT WAT WAT WAT WAT WAT WAT WAT WAT WAT WAT WAT WAT WAT WAT WAT 
WAT WAT WAT WAT WAT WAT WAT WAT WAT WAT WAT WAT WAT WAT WAT WAT WAT WAT WAT WAT 
WAT WAT WAT WAT WAT WAT WAT WAT WAT WAT WAT WAT WAT WAT WAT WAT WAT WAT WAT WAT 
WAT WAT WAT WAT WAT WAT WAT WAT WAT WAT WAT WAT WAT WAT WAT WAT WAT WAT WAT WAT 
WAT WAT WAT WAT WAT WAT WAT WAT WAT WAT WAT WAT WAT WAT WAT WAT WAT WAT WAT WAT 
WAT WAT WAT WAT WAT WAT WAT WAT WAT WAT WAT WAT WAT WAT WAT WAT WAT WAT WAT WAT 
WAT WAT WAT WAT WAT WAT WAT WAT WAT WAT WAT WAT WAT WAT WAT WAT WAT WAT WAT WAT 
WAT WAT WAT WAT WAT WAT WAT WAT WAT WAT WAT WAT WAT WAT WAT WAT WAT WAT WAT WAT 
WAT WAT WAT WAT WAT WAT WAT WAT WAT WAT WAT WAT WAT WAT WAT WAT WAT WAT WAT WAT 
WAT WAT WAT WAT WAT WAT WAT WAT WAT WAT WAT WAT WAT WAT WAT WAT WAT WAT WAT WAT 
WAT WAT WAT WAT WAT WAT WAT WAT WAT WAT WAT WAT WAT WAT WAT WAT WAT WAT WAT WAT 
WAT WAT WAT WAT WAT WAT WAT WAT WAT WAT WAT WAT WAT WAT WAT WAT WAT WAT WAT WAT 
WAT WAT WAT WAT WAT WAT WAT WAT WAT WAT WAT WAT WAT WAT WAT WAT WAT WAT WAT WAT 
WAT WAT WAT WAT WAT WAT WAT WAT WAT WAT WAT WAT WAT WAT WAT WAT WAT WAT WAT WAT 
WAT WAT WAT WAT WAT WAT WAT WAT WAT WAT WAT WAT WAT WAT WAT WAT WAT WAT WAT WAT 
WAT WAT WAT WAT WAT WAT WAT WAT WAT WAT WAT WAT WAT WAT WAT WAT WAT WAT WAT WAT 
WAT WAT WAT WAT WAT WAT WAT WAT WAT WAT WAT WAT WAT WAT WAT WAT WAT WAT WAT WAT 
WAT WAT WAT WAT WAT WAT WAT WAT WAT WAT WAT WAT WAT WAT WAT WAT WAT WAT WAT WAT 
WAT WAT WAT WAT WAT WAT WAT WAT WAT WAT WAT WAT WAT WAT WAT WAT WAT WAT WAT WAT 
WAT WAT WAT WAT WAT WAT WAT WAT WAT WAT WAT WAT WAT WAT WAT WAT WAT WAT WAT WAT 
WAT WAT WAT WAT WAT WAT WAT WAT WAT WAT WAT WAT WAT WAT WAT WAT WAT WAT WAT WAT 
WAT WAT WAT WAT WAT WAT WAT WAT WAT WAT WAT WAT WAT WAT WAT WAT WAT WAT WAT WAT 
WAT WAT WAT WAT WAT WAT WAT WAT WAT WAT WAT WAT WAT WAT WAT WAT WAT WAT WAT WAT 
WAT WAT WAT WAT WAT WAT WAT WAT WAT WAT WAT WAT WAT WAT WAT WAT WAT WAT WAT WAT 
WAT WAT WAT WAT WAT WAT WAT WAT WAT WAT WAT WAT WAT WAT WAT WAT WAT WAT WAT WAT 
WAT WAT WAT WAT WAT WAT WAT WAT WAT WAT WAT WAT WAT WAT WAT WAT WAT WAT WAT WAT 
WAT WAT WAT WAT WAT WAT WAT WAT WAT WAT WAT WAT WAT WAT WAT WAT WAT WAT WAT WAT 
WAT WAT WAT WAT WAT WAT WAT WAT WAT WAT WAT WAT WAT WAT WAT WAT WAT WAT WAT WAT 
WAT WAT WAT WAT WAT WAT WAT WAT WAT WAT WAT WAT WAT WAT WAT WAT WAT WAT WAT WAT 
WAT WAT WAT WAT WAT WAT WAT WAT WAT WAT WAT WAT WAT WAT WAT WAT WAT WAT WAT WAT 
WAT WAT WAT WAT WAT WAT WAT WAT WAT WAT WAT WAT WAT WAT WAT WAT WAT WAT WAT WAT 
WAT WAT WAT WAT WAT WAT WAT WAT WAT WAT WAT WAT WAT WAT WAT WAT WAT WAT WAT WAT 
WAT WAT WAT WAT WAT WAT WAT WAT WAT WAT WAT WAT WAT WAT WAT WAT WAT WAT WAT WAT 
WAT WAT WAT WAT WAT WAT WAT WAT WAT WAT WAT WAT WAT WAT WAT WAT WAT WAT WAT WAT 
WAT WAT WAT WAT WAT WAT WAT WAT WAT WAT WAT WAT WAT WAT WAT WAT WAT WAT WAT WAT 
WAT WAT WAT WAT WAT WAT WAT WAT WAT WAT WAT WAT WAT WAT WAT WAT WAT WAT WAT WAT 
WAT WAT WAT WAT WAT WAT WAT WAT WAT WAT WAT WAT WAT WAT WAT WAT WAT WAT WAT WAT 
WAT WAT WAT WAT WAT WAT WAT WAT WAT WAT WAT WAT WAT WAT WAT WAT WAT WAT WAT WAT 
WAT WAT WAT WAT WAT WAT WAT WAT WAT WAT WAT WAT WAT WAT WAT WAT WAT WAT WAT WAT 
WAT WAT WAT WAT WAT WAT WAT WAT WAT WAT WAT WAT WAT WAT WAT WAT WAT WAT WAT WAT 
WAT WAT WAT WAT WAT WAT WAT WAT WAT WAT WAT WAT WAT WAT WAT WAT WAT WAT WAT WAT 
WAT WAT WAT WAT WAT WAT WAT WAT WAT WAT WAT WAT WAT WAT WAT WAT WAT WAT WAT WAT 
WAT WAT WAT WAT WAT WAT WAT WAT WAT WAT WAT WAT WAT WAT WAT WAT WAT WAT WAT WAT 
WAT WAT WAT WAT WAT WAT WAT WAT WAT WAT WAT WAT WAT WAT WAT WAT WAT WAT WAT WAT 
WAT WAT WAT WAT WAT WAT WAT WAT WAT WAT WAT WAT WAT WAT WAT WAT WAT WAT WAT WAT 
WAT WAT WAT WAT WAT WAT WAT WAT WAT WAT WAT WAT WAT WAT WAT WAT WAT WAT WAT WAT 
WAT WAT WAT WAT WAT WAT WAT WAT WAT WAT WAT WAT WAT WAT WAT WAT WAT WAT WAT WAT 
WAT WAT WAT WAT WAT WAT WAT WAT WAT WAT WAT WAT WAT WAT WAT WAT WAT WAT WAT WAT 
WAT WAT WAT WAT WAT WAT WAT WAT WAT WAT WAT WAT WAT WAT WAT WAT WAT WAT WAT WAT 
WAT WAT WAT WAT WAT WAT WAT WAT WAT WAT WAT WAT WAT WAT WAT WAT WAT WAT WAT WAT 
WAT WAT WAT WAT WAT WAT WAT WAT WAT WAT WAT WAT WAT WAT WAT WAT WAT WAT WAT WAT 
WAT WAT WAT WAT WAT WAT WAT WAT WAT WAT WAT WAT WAT WAT WAT WAT WAT WAT WAT WAT 
WAT WAT WAT WAT WAT WAT WAT WAT WAT WAT WAT WAT WAT WAT WAT WAT WAT WAT WAT WAT 
WAT WAT WAT WAT WAT WAT WAT WAT WAT WAT WAT WAT WAT WAT WAT WAT WAT WAT WAT WAT 
WAT WAT WAT WAT WAT WAT WAT WAT WAT WAT WAT WAT WAT WAT WAT WAT WAT WAT WAT WAT 
WAT WAT WAT WAT WAT WAT WAT WAT WAT WAT WAT WAT WAT WAT WAT WAT WAT WAT WAT WAT 
WAT WAT WAT WAT WAT WAT WAT WAT WAT WAT WAT WAT WAT WAT WAT WAT WAT WAT WAT WAT 
WAT WAT WAT WAT WAT WAT WAT WAT WAT WAT WAT WAT WAT WAT WAT WAT WAT WAT WAT WAT 
WAT WAT WAT WAT WAT WAT WAT WAT WAT WAT WAT WAT WAT WAT WAT WAT WAT WAT WAT WAT 
WAT WAT WAT WAT WAT WAT WAT WAT WAT WAT WAT WAT WAT WAT WAT WAT WAT WAT WAT WAT 
WAT WAT WAT WAT WAT WAT WAT WAT WAT WAT WAT WAT WAT WAT WAT WAT WAT WAT WAT WAT 
WAT WAT WAT WAT WAT WAT WAT WAT WAT WAT WAT WAT WAT WAT WAT WAT WAT WAT WAT WAT 
WAT WAT WAT WAT WAT WAT WAT WAT WAT WAT WAT WAT WAT WAT WAT WAT WAT WAT WAT WAT 
WAT WAT WAT WAT WAT WAT WAT WAT WAT WAT WAT WAT WAT WAT WAT WAT WAT WAT WAT WAT 
WAT WAT WAT WAT WAT WAT WAT WAT WAT WAT WAT WAT WAT WAT WAT WAT WAT WAT WAT WAT 
WAT WAT WAT WAT WAT WAT WAT WAT WAT WAT WAT WAT WAT WAT WAT WAT WAT WAT WAT WAT 
WAT WAT WAT WAT WAT WAT WAT WAT WAT WAT WAT WAT WAT WAT WAT WAT WAT WAT WAT WAT 
WAT WAT WAT WAT WAT WAT WAT WAT WAT WAT WAT WAT WAT WAT WAT WAT WAT WAT WAT WAT 
WAT WAT WAT WAT WAT WAT WAT WAT WAT WAT WAT WAT WAT WAT WAT WAT WAT WAT WAT WAT 
WAT WAT WAT WAT WAT WAT WAT WAT WAT WAT WAT WAT WAT WAT WAT WAT WAT WAT WAT WAT 
WAT WAT WAT WAT WAT WAT WAT WAT WAT WAT WAT WAT WAT WAT WAT WAT WAT WAT WAT WAT 
WAT WAT WAT WAT WAT WAT WAT WAT WAT WAT WAT WAT WAT WAT WAT WAT WAT WAT WAT WAT 
WAT WAT WAT WAT WAT WAT WAT WAT WAT WAT WAT WAT WAT WAT WAT WAT WAT WAT WAT WAT 
WAT WAT WAT WAT WAT WAT WAT WAT WAT WAT WAT WAT WAT WAT WAT WAT WAT WAT WAT WAT 
WAT WAT WAT WAT WAT WAT WAT WAT WAT WAT WAT WAT WAT WAT WAT WAT WAT WAT WAT WAT 
WAT WAT WAT WAT WAT WAT WAT WAT WAT WAT WAT WAT WAT WAT WAT WAT WAT WAT WAT WAT 
WAT WAT WAT WAT WAT WAT WAT WAT WAT WAT WAT WAT WAT WAT WAT WAT WAT WAT WAT WAT 
WAT WAT WAT WAT WAT WAT WAT WAT WAT WAT WAT WAT WAT WAT WAT WAT WAT WAT WAT WAT 
WAT WAT WAT WAT WAT WAT WAT WAT WAT WAT WAT WAT WAT WAT WAT WAT WAT WAT WAT WAT 
WAT WAT WAT WAT WAT WAT WAT WAT WAT WAT WAT WAT WAT WAT WAT WAT WAT WAT WAT WAT 
WAT WAT WAT WAT WAT WAT WAT WAT WAT WAT WAT WAT WAT WAT WAT WAT WAT WAT WAT WAT 
WAT WAT WAT WAT WAT WAT WAT WAT WAT WAT WAT WAT WAT WAT WAT WAT WAT WAT WAT WAT 
WAT WAT WAT WAT WAT WAT WAT WAT WAT WAT WAT WAT WAT WAT WAT WAT WAT WAT WAT WAT 
WAT WAT WAT WAT WAT WAT WAT WAT WAT WAT WAT WAT WAT WAT WAT WAT WAT WAT WAT WAT 
WAT WAT WAT WAT WAT WAT WAT WAT WAT WAT WAT WAT WAT WAT WAT WAT WAT WAT WAT WAT 
WAT WAT WAT WAT WAT WAT WAT WAT WAT WAT WAT WAT WAT WAT WAT WAT WAT WAT WAT WAT 
WAT WAT WAT WAT WAT WAT WAT WAT WAT WAT WAT WAT WAT WAT WAT WAT WAT WAT WAT WAT 
WAT WAT WAT WAT WAT WAT WAT WAT WAT WAT WAT WAT WAT WAT WAT WAT WAT WAT WAT WAT 
WAT WAT WAT WAT WAT WAT WAT WAT WAT WAT WAT WAT WAT WAT WAT WAT WAT WAT WAT WAT 
WAT WAT WAT WAT WAT WAT WAT WAT WAT WAT WAT WAT WAT WAT WAT WAT WAT WAT WAT WAT 
WAT WAT WAT WAT WAT WAT WAT WAT WAT WAT WAT WAT WAT WAT WAT WAT WAT WAT WAT WAT 
WAT WAT WAT WAT WAT WAT WAT WAT WAT WAT WAT WAT WAT WAT WAT WAT WAT WAT WAT WAT 
WAT WAT WAT WAT WAT WAT WAT WAT WAT WAT WAT WAT WAT WAT WAT WAT WAT WAT WAT WAT 
WAT WAT WAT WAT WAT WAT WAT WAT WAT WAT WAT WAT WAT WAT WAT WAT WAT WAT WAT WAT 
WAT WAT WAT WAT WAT WAT WAT WAT WAT WAT WAT WAT WAT WAT WAT WAT WAT WAT WAT WAT 
WAT WAT WAT WAT WAT WAT WAT WAT WAT WAT WAT WAT WAT WAT WAT WAT WAT WAT WAT WAT 
WAT WAT WAT WAT WAT WAT WAT WAT WAT WAT WAT WAT WAT WAT WAT WAT WAT WAT WAT WAT 
WAT WAT WAT WAT WAT WAT WAT WAT WAT WAT WAT WAT WAT WAT WAT WAT WAT WAT WAT WAT 
WAT WAT WAT WAT WAT WAT WAT WAT WAT WAT WAT WAT WAT WAT WAT WAT WAT WAT WAT WAT 
WAT WAT WAT WAT WAT WAT WAT WAT WAT WAT WAT WAT WAT WAT WAT WAT WAT WAT WAT WAT 
WAT WAT WAT WAT WAT WAT WAT WAT WAT WAT WAT WAT WAT WAT WAT WAT WAT WAT WAT WAT 
WAT WAT WAT WAT WAT WAT WAT WAT WAT WAT WAT WAT WAT WAT WAT WAT WAT WAT WAT WAT 
WAT WAT WAT WAT WAT WAT WAT WAT WAT WAT WAT WAT WAT WAT WAT WAT WAT WAT WAT WAT 
WAT WAT WAT WAT WAT WAT WAT WAT WAT WAT WAT WAT WAT WAT WAT WAT WAT WAT WAT WAT 
WAT WAT WAT WAT WAT WAT WAT WAT WAT WAT WAT WAT WAT WAT WAT WAT WAT WAT WAT WAT 
WAT WAT WAT WAT WAT WAT WAT WAT WAT WAT WAT WAT WAT WAT WAT WAT WAT WAT WAT WAT 
WAT WAT WAT WAT WAT WAT WAT WAT WAT WAT WAT WAT WAT WAT WAT WAT WAT WAT WAT WAT 
WAT WAT WAT WAT WAT WAT WAT WAT WAT WAT WAT WAT WAT WAT WAT WAT WAT WAT WAT WAT 
WAT WAT WAT WAT WAT WAT WAT WAT WAT WAT WAT WAT WAT WAT WAT WAT WAT WAT WAT WAT 
WAT WAT WAT WAT WAT WAT WAT WAT WAT WAT WAT WAT WAT WAT WAT WAT WAT WAT WAT WAT 
WAT WAT WAT WAT WAT WAT WAT WAT WAT WAT WAT WAT WAT WAT WAT WAT WAT WAT WAT WAT 
WAT WAT WAT WAT WAT WAT WAT WAT WAT WAT WAT WAT WAT WAT WAT WAT WAT WAT WAT WAT 
WAT WAT WAT WAT WAT WAT WAT WAT WAT WAT WAT WAT WAT WAT WAT WAT WAT WAT WAT WAT 
WAT WAT WAT WAT WAT WAT WAT WAT WAT WAT WAT WAT WAT WAT WAT WAT WAT WAT WAT WAT 
WAT WAT WAT WAT WAT WAT WAT WAT WAT WAT WAT WAT WAT WAT WAT WAT WAT WAT WAT WAT 
WAT WAT WAT WAT WAT WAT WAT WAT WAT WAT WAT WAT WAT WAT WAT WAT WAT WAT WAT WAT 
WAT WAT WAT WAT WAT WAT WAT WAT WAT WAT WAT WAT WAT WAT WAT WAT WAT WAT WAT WAT 
WAT WAT WAT WAT WAT WAT WAT WAT WAT WAT WAT WAT WAT WAT WAT WAT WAT WAT WAT WAT 
WAT WAT WAT WAT WAT WAT WAT WAT WAT WAT WAT WAT WAT WAT WAT WAT WAT WAT WAT WAT 
WAT WAT WAT WAT WAT WAT WAT WAT WAT WAT WAT WAT WAT WAT WAT WAT WAT WAT WAT WAT 
WAT WAT WAT WAT WAT WAT WAT WAT WAT WAT WAT WAT WAT WAT WAT WAT WAT WAT WAT WAT 
WAT WAT WAT WAT WAT WAT WAT WAT WAT WAT WAT WAT WAT WAT WAT WAT WAT WAT WAT WAT 
WAT WAT WAT WAT WAT WAT WAT WAT WAT WAT WAT WAT WAT WAT WAT WAT WAT WAT WAT WAT 
WAT WAT WAT WAT WAT WAT WAT WAT WAT WAT WAT WAT WAT WAT WAT WAT WAT WAT WAT WAT 
WAT WAT WAT WAT WAT WAT WAT WAT WAT WAT WAT WAT WAT WAT WAT WAT WAT WAT WAT WAT 
WAT WAT WAT WAT WAT WAT WAT WAT WAT WAT WAT WAT WAT WAT WAT WAT WAT WAT WAT WAT 
WAT WAT WAT WAT WAT WAT WAT WAT WAT WAT WAT WAT WAT WAT WAT WAT WAT WAT WAT WAT 
WAT WAT WAT WAT WAT WAT WAT WAT WAT WAT WAT WAT WAT WAT WAT WAT WAT WAT WAT WAT 
WAT WAT WAT WAT WAT WAT WAT WAT WAT WAT WAT WAT WAT WAT WAT WAT WAT WAT WAT WAT 
WAT WAT WAT WAT WAT WAT WAT WAT WAT WAT WAT WAT WAT WAT WAT WAT WAT WAT WAT WAT 
WAT WAT WAT WAT WAT WAT WAT WAT WAT WAT WAT WAT WAT WAT WAT WAT WAT WAT WAT WAT 
WAT WAT WAT WAT WAT WAT WAT WAT WAT WAT WAT WAT WAT WAT WAT WAT WAT WAT WAT WAT 
WAT WAT WAT WAT WAT WAT WAT WAT WAT WAT WAT WAT WAT WAT WAT WAT WAT WAT WAT WAT 
WAT WAT WAT WAT WAT WAT WAT WAT WAT WAT WAT WAT WAT WAT WAT WAT WAT WAT WAT WAT 
WAT WAT WAT WAT WAT WAT WAT WAT WAT WAT WAT WAT WAT WAT WAT WAT WAT WAT WAT WAT 
WAT WAT WAT WAT WAT WAT WAT WAT WAT WAT WAT WAT WAT WAT WAT WAT WAT WAT WAT WAT 
WAT WAT WAT WAT WAT WAT WAT WAT WAT WAT WAT WAT WAT WAT WAT WAT WAT WAT WAT WAT 
WAT WAT WAT WAT WAT WAT WAT WAT WAT WAT WAT WAT WAT WAT WAT WAT WAT WAT WAT WAT 
WAT WAT WAT WAT WAT WAT WAT WAT WAT WAT WAT WAT WAT WAT WAT WAT WAT WAT WAT WAT 
WAT WAT WAT WAT WAT WAT WAT WAT WAT WAT WAT WAT WAT WAT WAT WAT WAT WAT WAT WAT 
WAT WAT WAT WAT WAT WAT WAT WAT WAT WAT WAT WAT WAT WAT WAT WAT WAT WAT WAT WAT 
WAT WAT WAT WAT WAT WAT WAT WAT WAT WAT WAT WAT WAT WAT WAT WAT WAT WAT WAT WAT 
WAT WAT WAT WAT WAT WAT WAT WAT WAT WAT WAT WAT WAT WAT WAT WAT WAT WAT WAT WAT 
WAT WAT WAT WAT WAT WAT WAT WAT WAT WAT WAT WAT WAT WAT WAT WAT WAT WAT WAT WAT 
WAT WAT WAT WAT WAT WAT WAT WAT WAT WAT WAT WAT WAT WAT WAT WAT WAT WAT WAT WAT 
WAT WAT WAT WAT WAT WAT WAT WAT WAT WAT WAT WAT WAT WAT WAT WAT WAT WAT WAT WAT 
WAT WAT WAT WAT WAT WAT WAT WAT WAT WAT WAT WAT WAT WAT WAT WAT WAT WAT WAT WAT 
WAT WAT WAT WAT WAT WAT WAT WAT WAT WAT WAT WAT WAT WAT WAT WAT WAT WAT WAT WAT 
WAT WAT WAT WAT WAT WAT WAT WAT WAT WAT WAT WAT WAT WAT WAT WAT WAT WAT WAT WAT 
WAT WAT WAT WAT WAT WAT WAT WAT WAT WAT WAT WAT WAT WAT WAT WAT WAT WAT WAT WAT 
WAT WAT WAT WAT WAT WAT WAT WAT WAT WAT WAT WAT WAT WAT WAT WAT WAT WAT WAT WAT 
WAT WAT WAT WAT WAT WAT WAT WAT WAT WAT WAT WAT WAT WAT WAT WAT WAT WAT WAT WAT 
WAT WAT WAT WAT WAT WAT WAT WAT WAT WAT WAT WAT WAT WAT WAT WAT WAT WAT WAT WAT 
WAT WAT WAT WAT WAT WAT WAT WAT WAT WAT WAT WAT WAT WAT WAT WAT WAT WAT WAT WAT 
WAT WAT WAT WAT WAT WAT WAT WAT WAT WAT WAT WAT WAT WAT WAT WAT WAT WAT WAT WAT 
WAT WAT WAT WAT WAT WAT WAT WAT WAT WAT WAT WAT WAT WAT WAT WAT WAT WAT WAT WAT 
WAT WAT WAT WAT WAT WAT WAT WAT WAT WAT WAT WAT WAT WAT WAT WAT WAT WAT WAT WAT 
WAT WAT WAT WAT WAT WAT WAT WAT WAT WAT WAT WAT WAT WAT WAT WAT WAT WAT WAT WAT 
WAT WAT WAT WAT WAT WAT WAT WAT WAT WAT WAT WAT WAT WAT WAT WAT WAT WAT WAT WAT 
WAT WAT WAT WAT WAT WAT WAT WAT WAT WAT WAT WAT WAT WAT WAT WAT WAT WAT WAT WAT 
WAT WAT WAT WAT WAT WAT WAT WAT WAT WAT WAT WAT WAT WAT WAT WAT WAT WAT WAT WAT 
WAT WAT WAT WAT WAT WAT WAT WAT WAT WAT WAT WAT WAT WAT WAT WAT WAT WAT WAT WAT 
WAT WAT WAT WAT WAT WAT WAT WAT WAT WAT WAT WAT WAT WAT WAT WAT WAT WAT WAT WAT 
WAT WAT WAT WAT WAT WAT WAT WAT WAT WAT WAT WAT WAT WAT WAT WAT WAT WAT WAT WAT 
WAT WAT WAT WAT WAT WAT WAT WAT WAT WAT WAT WAT WAT WAT WAT WAT WAT WAT WAT WAT 
WAT WAT WAT WAT WAT WAT WAT WAT WAT WAT WAT WAT WAT WAT WAT WAT WAT WAT WAT WAT 
WAT WAT WAT WAT WAT WAT WAT WAT WAT WAT WAT WAT WAT WAT WAT WAT WAT WAT WAT WAT 
WAT WAT WAT WAT WAT WAT WAT WAT WAT WAT WAT WAT WAT WAT WAT WAT WAT WAT WAT WAT 
WAT WAT WAT WAT WAT WAT WAT WAT WAT WAT WAT WAT WAT WAT WAT WAT WAT WAT WAT WAT 
WAT WAT WAT WAT WAT WAT WAT WAT WAT WAT WAT WAT WAT WAT WAT WAT WAT WAT WAT WAT 
WAT WAT WAT WAT WAT WAT WAT WAT WAT WAT WAT WAT WAT WAT WAT WAT WAT WAT WAT WAT 
WAT WAT WAT WAT WAT WAT WAT WAT WAT WAT WAT WAT WAT WAT WAT WAT WAT WAT WAT WAT 
WAT WAT WAT WAT WAT WAT WAT WAT WAT WAT WAT WAT WAT WAT WAT WAT WAT WAT WAT WAT 
WAT WAT WAT WAT WAT WAT WAT WAT WAT WAT WAT WAT WAT WAT WAT WAT WAT WAT WAT WAT 
WAT WAT WAT WAT WAT WAT WAT WAT WAT WAT WAT WAT WAT WAT WAT WAT WAT WAT WAT WAT 
WAT WAT WAT WAT WAT WAT WAT WAT WAT WAT WAT WAT WAT WAT WAT WAT WAT WAT WAT WAT 
WAT WAT WAT WAT WAT WAT WAT WAT WAT WAT WAT WAT WAT WAT WAT WAT WAT WAT WAT WAT 
WAT WAT WAT WAT WAT WAT WAT WAT WAT WAT WAT WAT WAT WAT WAT WAT WAT WAT WAT WAT 
WAT WAT WAT WAT WAT WAT WAT WAT WAT WAT WAT WAT WAT WAT WAT WAT WAT WAT WAT WAT 
WAT WAT WAT WAT WAT WAT WAT WAT WAT WAT WAT WAT WAT WAT WAT WAT WAT WAT WAT WAT 
WAT WAT WAT WAT WAT WAT WAT WAT WAT WAT WAT WAT WAT WAT WAT WAT WAT WAT WAT WAT 
WAT WAT WAT WAT WAT WAT WAT WAT WAT WAT WAT WAT WAT WAT WAT WAT WAT WAT WAT WAT 
WAT WAT WAT WAT WAT WAT WAT WAT WAT WAT WAT WAT WAT WAT WAT WAT WAT WAT WAT WAT 
WAT WAT WAT WAT WAT WAT WAT WAT WAT WAT WAT WAT WAT WAT WAT WAT WAT WAT WAT WAT 
WAT WAT WAT WAT WAT WAT WAT WAT WAT WAT WAT WAT WAT WAT WAT WAT WAT WAT WAT WAT 
WAT WAT WAT WAT WAT WAT WAT WAT WAT WAT WAT WAT WAT WAT WAT WAT WAT WAT WAT WAT 
WAT WAT WAT WAT WAT WAT WAT WAT WAT WAT WAT WAT WAT WAT WAT WAT WAT WAT WAT WAT 
WAT WAT WAT WAT WAT WAT WAT WAT WAT WAT WAT WAT WAT WAT WAT WAT WAT WAT WAT WAT 
WAT WAT WAT WAT WAT WAT WAT WAT WAT WAT WAT WAT WAT WAT WAT WAT WAT WAT WAT WAT 
WAT WAT WAT WAT WAT WAT WAT WAT WAT WAT WAT WAT WAT WAT WAT WAT WAT WAT WAT WAT 
WAT WAT WAT WAT WAT WAT WAT WAT WAT WAT WAT WAT WAT WAT WAT WAT WAT WAT WAT WAT 
WAT WAT WAT WAT WAT WAT WAT WAT WAT WAT WAT WAT WAT WAT WAT WAT WAT WAT WAT WAT 
WAT WAT WAT WAT WAT WAT WAT WAT WAT WAT WAT WAT WAT WAT WAT WAT WAT WAT WAT WAT 
WAT WAT WAT WAT WAT WAT WAT WAT WAT WAT WAT WAT WAT WAT WAT WAT WAT WAT WAT WAT 
WAT WAT WAT WAT WAT WAT WAT WAT WAT WAT WAT WAT WAT WAT WAT WAT WAT WAT WAT WAT 
WAT WAT WAT WAT WAT WAT WAT WAT WAT WAT WAT WAT WAT WAT WAT WAT WAT WAT WAT WAT 
WAT WAT WAT WAT WAT WAT WAT WAT WAT WAT WAT WAT WAT WAT WAT WAT WAT WAT WAT WAT 
WAT WAT WAT WAT WAT WAT WAT WAT WAT WAT WAT WAT WAT WAT WAT WAT WAT WAT WAT WAT 
WAT WAT WAT WAT WAT WAT WAT WAT WAT WAT WAT WAT WAT WAT WAT WAT WAT WAT WAT WAT 
WAT WAT WAT WAT WAT WAT WAT WAT WAT WAT WAT WAT WAT WAT WAT WAT WAT WAT WAT WAT 
WAT WAT WAT WAT WAT WAT WAT WAT WAT WAT WAT WAT WAT WAT WAT WAT WAT WAT WAT WAT 
WAT WAT WAT WAT WAT WAT WAT WAT WAT WAT WAT WAT WAT WAT WAT WAT WAT WAT WAT WAT 
WAT WAT WAT WAT WAT WAT WAT WAT WAT WAT WAT WAT WAT WAT WAT WAT WAT WAT WAT WAT 
WAT WAT WAT WAT WAT WAT WAT WAT WAT WAT WAT WAT WAT WAT WAT WAT WAT WAT WAT WAT 
WAT WAT WAT WAT WAT WAT WAT WAT WAT WAT WAT WAT WAT WAT WAT WAT WAT WAT WAT WAT 
WAT WAT WAT WAT WAT WAT WAT WAT WAT WAT WAT WAT WAT WAT WAT WAT WAT WAT WAT WAT 
WAT WAT WAT WAT WAT WAT WAT WAT WAT WAT WAT WAT WAT WAT WAT WAT WAT WAT WAT WAT 
WAT WAT WAT WAT WAT WAT WAT WAT WAT WAT WAT WAT WAT WAT WAT WAT WAT WAT WAT WAT 
WAT WAT WAT WAT WAT WAT WAT WAT WAT WAT WAT WAT WAT WAT WAT WAT WAT WAT WAT WAT 
WAT WAT WAT WAT WAT WAT WAT WAT WAT WAT WAT WAT WAT WAT WAT WAT WAT WAT WAT WAT 
WAT WAT WAT WAT WAT WAT WAT WAT WAT WAT WAT WAT WAT WAT WAT WAT WAT WAT WAT WAT 
WAT WAT WAT WAT WAT WAT WAT WAT WAT WAT WAT WAT WAT WAT WAT WAT WAT WAT WAT WAT 
WAT WAT WAT WAT WAT WAT WAT WAT WAT WAT WAT WAT WAT WAT WAT WAT WAT WAT WAT WAT 
WAT WAT WAT WAT WAT WAT WAT WAT WAT WAT WAT WAT WAT WAT WAT WAT WAT WAT WAT WAT 
WAT WAT WAT WAT WAT WAT WAT WAT WAT WAT WAT WAT WAT WAT WAT WAT WAT WAT WAT WAT 
WAT WAT WAT WAT WAT WAT WAT WAT WAT WAT WAT WAT WAT WAT WAT WAT WAT WAT WAT WAT 
WAT WAT WAT WAT WAT WAT WAT WAT WAT WAT WAT WAT WAT WAT WAT WAT WAT WAT WAT WAT 
WAT WAT WAT WAT WAT WAT WAT WAT WAT WAT WAT WAT WAT WAT WAT WAT WAT WAT WAT WAT 
WAT WAT WAT WAT WAT WAT WAT WAT WAT WAT WAT WAT WAT WAT WAT WAT WAT WAT WAT WAT 
WAT WAT WAT WAT WAT WAT WAT WAT WAT WAT WAT WAT WAT WAT WAT WAT WAT WAT WAT WAT 
WAT WAT WAT WAT WAT WAT WAT WAT WAT WAT WAT WAT WAT WAT WAT WAT WAT WAT WAT WAT 
WAT WAT WAT WAT WAT WAT WAT WAT WAT WAT WAT WAT WAT WAT WAT WAT WAT WAT WAT WAT 
WAT WAT WAT WAT WAT WAT WAT WAT WAT WAT WAT WAT WAT WAT WAT WAT WAT WAT WAT WAT 
WAT WAT WAT WAT WAT WAT WAT WAT WAT WAT WAT WAT WAT WAT WAT WAT WAT WAT WAT WAT 
WAT WAT WAT WAT WAT WAT WAT WAT WAT WAT WAT WAT WAT WAT WAT WAT WAT WAT WAT WAT 
WAT WAT WAT WAT WAT WAT WAT WAT WAT WAT WAT WAT WAT WAT WAT WAT WAT WAT WAT WAT 
WAT WAT WAT WAT WAT WAT WAT WAT WAT WAT WAT WAT WAT WAT WAT WAT WAT WAT WAT WAT 
WAT WAT WAT WAT WAT WAT WAT WAT WAT WAT WAT WAT WAT WAT WAT WAT WAT WAT WAT WAT 
WAT WAT WAT WAT WAT WAT WAT WAT WAT WAT WAT WAT WAT WAT WAT WAT WAT WAT WAT WAT 
WAT WAT WAT WAT WAT WAT WAT WAT WAT WAT WAT WAT WAT WAT WAT WAT WAT WAT WAT WAT 
WAT WAT WAT WAT WAT WAT WAT WAT WAT WAT WAT WAT WAT WAT WAT WAT WAT WAT WAT WAT 
WAT WAT WAT WAT WAT WAT WAT WAT WAT WAT WAT WAT WAT WAT WAT WAT WAT WAT WAT WAT 
WAT WAT WAT WAT WAT WAT WAT WAT WAT WAT WAT WAT WAT WAT WAT WAT WAT WAT WAT WAT 
WAT WAT WAT WAT WAT WAT WAT WAT WAT WAT WAT WAT WAT WAT WAT WAT WAT WAT WAT WAT 
WAT WAT WAT WAT WAT WAT WAT WAT WAT WAT WAT WAT WAT WAT WAT WAT WAT WAT WAT WAT 
WAT WAT WAT WAT WAT WAT WAT WAT WAT WAT WAT WAT WAT WAT WAT WAT WAT WAT WAT WAT 
WAT WAT WAT WAT WAT WAT WAT WAT WAT WAT WAT WAT WAT WAT WAT WAT WAT WAT WAT WAT 
WAT WAT WAT WAT WAT WAT WAT WAT WAT WAT WAT WAT WAT WAT WAT WAT WAT WAT WAT WAT 
WAT WAT WAT WAT WAT WAT WAT WAT WAT WAT WAT WAT WAT WAT WAT WAT WAT WAT WAT WAT 
WAT WAT WAT WAT WAT WAT WAT WAT WAT WAT WAT WAT WAT WAT WAT WAT WAT WAT WAT WAT 
WAT WAT WAT WAT WAT WAT WAT WAT WAT WAT WAT WAT WAT WAT WAT WAT WAT WAT WAT WAT 
WAT WAT WAT WAT WAT WAT WAT WAT WAT WAT WAT WAT WAT WAT WAT WAT WAT WAT WAT WAT 
WAT WAT WAT WAT WAT WAT WAT WAT WAT WAT WAT WAT WAT WAT WAT WAT WAT WAT WAT WAT 
WAT WAT WAT WAT WAT WAT WAT WAT WAT WAT WAT WAT WAT WAT WAT WAT WAT WAT WAT WAT 
WAT WAT WAT WAT WAT WAT WAT WAT WAT WAT WAT WAT WAT WAT WAT WAT WAT WAT WAT WAT 
WAT WAT WAT WAT WAT WAT WAT WAT WAT WAT WAT WAT WAT WAT WAT WAT WAT WAT WAT WAT 
WAT WAT WAT WAT WAT WAT WAT WAT WAT WAT WAT WAT WAT WAT WAT WAT WAT WAT WAT WAT 
WAT WAT WAT WAT WAT WAT WAT WAT WAT WAT WAT WAT WAT WAT WAT WAT WAT WAT WAT WAT 
WAT WAT WAT WAT WAT WAT WAT WAT WAT WAT WAT WAT WAT WAT WAT WAT WAT WAT WAT WAT 
WAT WAT WAT WAT WAT WAT WAT WAT WAT WAT WAT WAT WAT WAT WAT WAT WAT WAT WAT WAT 
WAT WAT WAT WAT WAT WAT WAT WAT WAT WAT WAT WAT WAT WAT WAT WAT WAT WAT WAT WAT 
WAT WAT WAT WAT WAT WAT WAT WAT WAT WAT WAT WAT WAT WAT WAT WAT WAT WAT WAT WAT 
WAT WAT WAT WAT WAT WAT WAT WAT WAT WAT WAT WAT WAT WAT WAT WAT WAT WAT WAT WAT 
WAT WAT WAT WAT WAT WAT WAT WAT WAT WAT WAT WAT WAT WAT WAT WAT WAT WAT WAT WAT 
WAT WAT WAT WAT WAT WAT WAT WAT WAT WAT WAT WAT WAT WAT WAT WAT WAT WAT WAT WAT 
WAT WAT WAT WAT WAT WAT WAT WAT WAT WAT WAT WAT WAT WAT WAT WAT WAT WAT WAT WAT 
WAT WAT WAT WAT WAT WAT WAT WAT WAT WAT WAT WAT WAT WAT WAT WAT WAT WAT WAT WAT 
WAT WAT WAT WAT WAT WAT WAT WAT WAT WAT WAT WAT WAT WAT WAT WAT WAT WAT WAT WAT 
WAT WAT WAT WAT WAT WAT WAT WAT WAT WAT WAT WAT WAT WAT WAT WAT WAT WAT WAT WAT 
WAT WAT WAT WAT WAT WAT WAT WAT WAT WAT WAT WAT WAT WAT WAT WAT WAT WAT WAT WAT 
WAT WAT WAT WAT WAT WAT WAT WAT WAT WAT WAT WAT WAT WAT WAT WAT WAT WAT WAT WAT 
WAT WAT WAT WAT WAT WAT WAT WAT WAT WAT WAT WAT WAT WAT WAT WAT WAT WAT WAT WAT 
WAT WAT WAT WAT WAT WAT WAT WAT WAT WAT WAT WAT WAT WAT WAT WAT WAT WAT WAT WAT 
WAT WAT WAT WAT WAT WAT WAT WAT WAT WAT WAT WAT WAT WAT WAT WAT WAT WAT WAT WAT 
WAT WAT WAT WAT WAT WAT WAT WAT WAT WAT WAT WAT WAT WAT WAT WAT WAT WAT WAT WAT 
WAT WAT WAT WAT WAT WAT WAT WAT WAT WAT WAT WAT WAT WAT WAT WAT WAT WAT WAT WAT 
WAT WAT WAT WAT WAT WAT WAT WAT WAT WAT WAT WAT WAT WAT WAT WAT WAT WAT WAT WAT 
WAT WAT WAT WAT WAT WAT WAT WAT WAT WAT WAT WAT WAT WAT WAT WAT WAT WAT WAT WAT 
WAT WAT WAT WAT WAT WAT WAT WAT WAT WAT WAT WAT WAT WAT WAT WAT WAT WAT WAT WAT 
WAT WAT WAT WAT WAT WAT WAT WAT WAT WAT WAT WAT WAT WAT WAT WAT WAT WAT WAT WAT 
WAT WAT WAT WAT WAT WAT WAT WAT WAT WAT WAT WAT WAT WAT WAT WAT WAT WAT WAT WAT 
WAT WAT WAT WAT WAT WAT WAT WAT WAT WAT WAT WAT WAT WAT WAT WAT WAT WAT WAT WAT 
WAT WAT WAT WAT WAT WAT WAT WAT WAT WAT WAT WAT WAT WAT WAT WAT WAT WAT WAT WAT 
WAT WAT WAT WAT WAT WAT WAT WAT WAT WAT WAT WAT WAT WAT WAT WAT WAT WAT WAT WAT 
WAT WAT WAT WAT WAT WAT WAT WAT WAT WAT WAT WAT WAT WAT WAT WAT WAT WAT WAT WAT 
WAT WAT WAT WAT WAT WAT WAT WAT WAT WAT WAT WAT WAT WAT WAT WAT WAT WAT WAT WAT 
WAT WAT WAT WAT WAT WAT WAT WAT WAT WAT WAT WAT WAT WAT WAT WAT WAT WAT WAT WAT 
WAT WAT WAT WAT WAT WAT WAT WAT WAT WAT WAT WAT WAT WAT WAT WAT WAT WAT WAT WAT 
WAT WAT WAT WAT WAT WAT WAT WAT WAT WAT WAT WAT WAT WAT WAT WAT WAT WAT WAT WAT 
WAT WAT WAT WAT WAT WAT WAT WAT WAT WAT WAT WAT WAT WAT WAT WAT WAT WAT WAT WAT 
WAT WAT WAT WAT WAT WAT WAT WAT WAT WAT WAT WAT WAT WAT WAT WAT WAT WAT WAT WAT 
WAT WAT WAT WAT WAT WAT WAT WAT WAT WAT WAT WAT WAT WAT WAT WAT WAT WAT WAT WAT 
WAT WAT WAT WAT WAT WAT WAT WAT WAT WAT WAT WAT WAT WAT WAT WAT WAT WAT WAT WAT 
WAT WAT WAT WAT WAT WAT WAT WAT WAT WAT WAT WAT WAT WAT WAT WAT WAT WAT WAT WAT 
WAT WAT WAT WAT WAT WAT WAT WAT WAT WAT WAT WAT WAT WAT WAT WAT WAT WAT WAT WAT 
WAT WAT WAT WAT WAT WAT WAT WAT WAT WAT WAT WAT WAT WAT WAT WAT WAT WAT WAT WAT 
WAT WAT WAT WAT WAT WAT WAT WAT WAT WAT WAT WAT WAT WAT WAT WAT WAT WAT WAT WAT 
WAT WAT WAT WAT WAT WAT WAT WAT WAT WAT WAT WAT WAT WAT WAT WAT WAT WAT WAT WAT 
WAT WAT WAT WAT WAT WAT WAT WAT WAT WAT WAT WAT WAT WAT WAT WAT WAT WAT WAT WAT 
WAT WAT WAT WAT WAT WAT WAT WAT WAT WAT WAT WAT WAT WAT WAT WAT WAT WAT WAT WAT 
WAT WAT WAT WAT WAT WAT WAT WAT WAT WAT WAT WAT WAT WAT WAT WAT WAT WAT WAT WAT 
WAT WAT WAT WAT WAT WAT WAT WAT WAT WAT WAT WAT WAT WAT WAT WAT WAT WAT WAT WAT 
WAT WAT WAT WAT WAT WAT WAT WAT WAT WAT WAT WAT WAT WAT WAT WAT WAT WAT WAT WAT 
WAT WAT WAT WAT WAT WAT WAT WAT WAT WAT WAT WAT WAT WAT WAT WAT WAT WAT WAT WAT 
WAT WAT WAT WAT WAT WAT WAT WAT WAT WAT WAT WAT WAT WAT WAT WAT WAT WAT WAT WAT 
WAT WAT WAT WAT WAT WAT WAT WAT WAT WAT WAT WAT WAT WAT WAT WAT WAT WAT WAT WAT 
WAT WAT WAT WAT WAT WAT WAT WAT WAT WAT WAT WAT WAT WAT WAT WAT WAT WAT WAT WAT 
WAT WAT WAT WAT WAT WAT WAT WAT WAT WAT WAT WAT WAT WAT WAT WAT WAT WAT WAT WAT 
WAT WAT WAT WAT WAT WAT WAT WAT WAT WAT WAT WAT WAT WAT WAT WAT WAT WAT WAT WAT 
WAT WAT WAT WAT WAT WAT WAT WAT WAT WAT WAT WAT WAT WAT WAT WAT WAT WAT WAT WAT 
WAT WAT WAT WAT WAT WAT WAT WAT WAT WAT WAT WAT WAT WAT WAT WAT WAT WAT WAT WAT 
WAT WAT WAT WAT WAT WAT WAT WAT WAT WAT WAT WAT WAT WAT WAT WAT WAT WAT WAT WAT 
WAT WAT WAT WAT WAT WAT WAT WAT WAT WAT WAT WAT WAT WAT WAT WAT WAT WAT WAT WAT 
WAT WAT WAT WAT WAT WAT WAT WAT WAT WAT WAT WAT WAT WAT WAT WAT WAT WAT WAT WAT 
WAT WAT WAT WAT WAT WAT WAT WAT WAT WAT WAT WAT WAT WAT WAT WAT WAT WAT WAT WAT 
WAT WAT WAT WAT WAT WAT WAT WAT WAT WAT WAT WAT WAT WAT WAT WAT WAT WAT WAT WAT 
WAT WAT WAT WAT WAT WAT WAT WAT WAT WAT WAT WAT WAT WAT WAT WAT WAT WAT WAT WAT 
WAT WAT WAT WAT WAT WAT WAT WAT WAT WAT WAT WAT WAT WAT WAT WAT WAT WAT WAT WAT 
WAT WAT WAT WAT WAT WAT WAT WAT WAT WAT WAT WAT WAT WAT WAT WAT WAT WAT WAT WAT 
WAT WAT WAT WAT WAT WAT WAT WAT WAT WAT WAT WAT WAT WAT WAT WAT WAT WAT WAT WAT 
WAT WAT WAT WAT WAT WAT WAT WAT WAT WAT WAT WAT WAT WAT WAT WAT WAT WAT WAT WAT 
WAT WAT WAT WAT WAT WAT WAT WAT WAT WAT WAT WAT WAT WAT WAT WAT WAT WAT WAT WAT 
WAT WAT WAT WAT WAT WAT WAT WAT WAT WAT WAT WAT WAT WAT WAT WAT WAT WAT WAT WAT 
WAT WAT WAT WAT WAT WAT WAT WAT WAT WAT WAT WAT WAT WAT WAT WAT WAT WAT WAT WAT 
WAT WAT WAT WAT WAT WAT WAT WAT WAT WAT WAT WAT WAT WAT WAT WAT WAT WAT WAT WAT 
WAT WAT WAT WAT WAT WAT WAT WAT WAT WAT WAT WAT WAT WAT WAT WAT WAT WAT WAT WAT 
WAT WAT WAT WAT WAT WAT WAT WAT WAT WAT WAT WAT WAT WAT WAT WAT WAT WAT WAT WAT 
WAT WAT WAT WAT WAT WAT WAT WAT WAT WAT WAT WAT WAT WAT WAT WAT WAT WAT WAT WAT 
WAT WAT WAT WAT WAT WAT WAT WAT WAT WAT WAT WAT WAT WAT WAT WAT WAT WAT WAT WAT 
WAT WAT WAT WAT WAT WAT WAT WAT WAT WAT WAT WAT WAT WAT WAT WAT WAT WAT WAT WAT 
WAT WAT WAT WAT WAT WAT WAT WAT WAT WAT WAT WAT WAT WAT WAT WAT WAT WAT WAT WAT 
WAT WAT WAT WAT WAT WAT WAT WAT WAT WAT WAT WAT WAT WAT WAT WAT WAT WAT WAT WAT 
WAT WAT WAT WAT WAT WAT WAT WAT WAT WAT WAT WAT WAT WAT WAT WAT WAT WAT WAT WAT 
WAT WAT WAT WAT WAT WAT WAT WAT WAT WAT WAT WAT WAT WAT WAT WAT WAT WAT WAT WAT 
WAT WAT WAT WAT WAT WAT WAT WAT WAT WAT WAT WAT WAT WAT WAT WAT WAT WAT WAT WAT 
WAT WAT WAT WAT WAT WAT WAT WAT WAT WAT WAT WAT WAT WAT WAT WAT WAT WAT WAT WAT 
WAT WAT WAT WAT WAT WAT WAT WAT WAT WAT WAT WAT WAT WAT WAT WAT WAT WAT WAT WAT 
WAT WAT WAT WAT WAT WAT WAT WAT WAT WAT WAT WAT WAT WAT WAT WAT WAT WAT WAT WAT 
WAT WAT WAT WAT WAT WAT WAT WAT WAT WAT WAT WAT WAT WAT WAT WAT WAT WAT WAT WAT 
WAT WAT WAT WAT WAT WAT WAT WAT WAT WAT WAT WAT WAT WAT WAT WAT WAT WAT WAT WAT 
WAT WAT WAT WAT WAT WAT WAT WAT WAT WAT WAT WAT WAT WAT WAT WAT WAT WAT WAT WAT 
WAT WAT WAT WAT WAT WAT WAT WAT WAT WAT WAT WAT WAT WAT WAT WAT WAT WAT WAT WAT 
WAT WAT WAT WAT WAT WAT WAT WAT WAT WAT WAT WAT WAT WAT WAT WAT WAT WAT WAT WAT 
WAT WAT WAT WAT WAT WAT WAT WAT WAT WAT WAT WAT WAT WAT WAT WAT WAT WAT WAT WAT 
WAT WAT WAT WAT WAT WAT WAT WAT WAT WAT WAT WAT WAT WAT WAT WAT WAT WAT WAT WAT 
WAT WAT WAT WAT WAT WAT WAT WAT WAT WAT WAT WAT WAT WAT WAT WAT WAT WAT WAT WAT 
WAT WAT WAT WAT WAT WAT WAT WAT WAT WAT WAT WAT WAT WAT WAT WAT WAT WAT WAT WAT 
WAT WAT WAT WAT WAT WAT WAT WAT WAT WAT WAT WAT WAT WAT WAT WAT WAT WAT WAT WAT 
WAT WAT WAT WAT WAT WAT WAT WAT WAT WAT WAT WAT WAT WAT WAT WAT WAT WAT WAT WAT 
WAT WAT WAT WAT WAT WAT WAT WAT WAT WAT WAT WAT WAT WAT WAT WAT WAT WAT WAT WAT 
WAT WAT WAT WAT WAT WAT WAT WAT WAT WAT WAT WAT WAT WAT WAT WAT WAT WAT WAT WAT 
WAT WAT WAT WAT WAT WAT WAT WAT WAT WAT WAT WAT WAT WAT WAT WAT WAT WAT WAT WAT 
WAT WAT WAT WAT WAT WAT WAT WAT WAT WAT WAT WAT WAT WAT WAT WAT WAT WAT WAT WAT 
WAT WAT WAT WAT WAT WAT WAT WAT WAT WAT WAT WAT WAT WAT WAT WAT WAT WAT WAT WAT 
WAT WAT WAT WAT WAT WAT WAT WAT WAT WAT WAT WAT WAT WAT WAT WAT WAT WAT WAT WAT 
WAT WAT WAT WAT WAT WAT WAT WAT WAT WAT WAT WAT WAT WAT WAT WAT WAT WAT WAT WAT 
WAT WAT WAT WAT WAT WAT WAT WAT WAT WAT WAT WAT WAT WAT WAT WAT WAT WAT WAT WAT 
WAT WAT WAT WAT WAT WAT WAT WAT WAT WAT WAT WAT WAT WAT WAT WAT WAT WAT WAT WAT 
WAT WAT WAT WAT WAT WAT WAT WAT WAT WAT WAT WAT WAT WAT WAT WAT WAT WAT WAT WAT 
WAT WAT WAT WAT WAT WAT WAT WAT WAT WAT WAT WAT WAT WAT WAT WAT WAT WAT WAT WAT 
WAT WAT WAT WAT WAT WAT WAT WAT WAT WAT WAT WAT WAT WAT WAT WAT WAT WAT WAT WAT 
WAT WAT WAT WAT WAT WAT WAT WAT WAT WAT WAT WAT WAT WAT WAT WAT WAT WAT WAT WAT 
WAT WAT WAT WAT WAT WAT WAT WAT WAT WAT WAT WAT WAT WAT WAT WAT WAT WAT WAT WAT 
WAT WAT WAT WAT WAT WAT WAT WAT WAT WAT WAT WAT WAT WAT WAT WAT WAT WAT WAT WAT 
WAT WAT WAT WAT WAT WAT WAT WAT WAT WAT WAT WAT WAT WAT WAT WAT WAT WAT WAT WAT 
WAT WAT WAT WAT WAT WAT WAT WAT WAT WAT WAT WAT WAT WAT WAT WAT WAT WAT WAT WAT 
WAT WAT WAT WAT WAT WAT WAT WAT WAT WAT WAT WAT WAT WAT WAT WAT WAT WAT WAT WAT 
WAT WAT WAT WAT WAT WAT WAT WAT WAT WAT WAT WAT WAT WAT WAT WAT WAT WAT WAT WAT 
WAT WAT WAT WAT WAT WAT WAT WAT WAT WAT WAT WAT WAT WAT WAT WAT WAT WAT WAT WAT 
WAT WAT WAT WAT WAT WAT WAT WAT WAT WAT WAT WAT WAT WAT WAT WAT WAT WAT WAT WAT 
WAT WAT WAT WAT WAT WAT WAT WAT WAT WAT WAT WAT WAT WAT WAT WAT WAT WAT WAT WAT 
WAT WAT WAT WAT WAT WAT WAT WAT WAT WAT WAT WAT WAT WAT WAT WAT WAT WAT WAT WAT 
WAT WAT WAT WAT WAT WAT WAT WAT WAT WAT WAT WAT WAT WAT WAT WAT WAT WAT WAT WAT 
WAT WAT WAT WAT WAT WAT WAT WAT WAT WAT WAT WAT WAT WAT WAT WAT WAT WAT WAT WAT 
WAT WAT WAT WAT WAT WAT WAT WAT WAT WAT WAT WAT WAT WAT WAT WAT WAT WAT WAT WAT 
WAT WAT WAT WAT WAT WAT WAT WAT WAT WAT WAT WAT WAT WAT WAT WAT WAT WAT WAT WAT 
WAT WAT WAT WAT WAT WAT WAT WAT WAT WAT WAT WAT WAT WAT WAT WAT WAT WAT WAT WAT 
WAT WAT WAT WAT WAT WAT WAT WAT WAT WAT WAT WAT WAT WAT WAT WAT WAT WAT WAT WAT 
WAT WAT WAT WAT WAT WAT WAT WAT WAT WAT WAT WAT WAT WAT WAT WAT WAT WAT WAT WAT 
WAT WAT WAT WAT WAT WAT WAT WAT WAT WAT WAT WAT WAT WAT WAT WAT WAT WAT WAT WAT 
WAT WAT WAT WAT WAT WAT WAT WAT WAT WAT WAT WAT WAT WAT WAT WAT WAT WAT WAT WAT 
WAT WAT WAT WAT WAT WAT WAT WAT WAT WAT WAT WAT WAT WAT WAT WAT WAT WAT WAT WAT 
WAT WAT WAT WAT WAT WAT WAT WAT WAT WAT WAT WAT WAT WAT WAT WAT WAT WAT WAT WAT 
WAT WAT WAT WAT WAT WAT WAT WAT WAT WAT WAT WAT WAT WAT WAT WAT WAT WAT WAT WAT 
WAT WAT WAT WAT WAT WAT WAT WAT WAT WAT WAT WAT WAT WAT WAT WAT WAT WAT WAT WAT 
WAT WAT WAT WAT WAT WAT WAT WAT WAT WAT WAT WAT WAT WAT WAT WAT WAT WAT WAT WAT 
WAT WAT WAT WAT WAT WAT WAT WAT WAT WAT WAT WAT WAT WAT WAT WAT WAT WAT WAT WAT 
WAT WAT WAT WAT WAT WAT WAT WAT WAT WAT WAT WAT WAT WAT WAT WAT WAT WAT WAT WAT 
WAT WAT WAT WAT WAT WAT WAT WAT WAT WAT WAT WAT WAT WAT WAT WAT WAT WAT WAT WAT 
WAT WAT WAT WAT WAT WAT WAT WAT WAT WAT WAT WAT WAT WAT WAT WAT WAT WAT WAT WAT 
WAT WAT WAT WAT WAT WAT WAT WAT WAT WAT WAT WAT WAT WAT WAT WAT WAT WAT WAT WAT 
WAT WAT WAT WAT WAT WAT WAT WAT WAT WAT WAT WAT WAT WAT WAT WAT WAT WAT WAT WAT 
WAT WAT WAT WAT WAT WAT WAT WAT WAT WAT WAT WAT WAT WAT WAT WAT WAT WAT WAT WAT 
WAT WAT WAT WAT WAT WAT WAT WAT WAT WAT WAT WAT WAT WAT WAT WAT WAT WAT WAT WAT 
WAT WAT WAT WAT WAT WAT WAT WAT WAT WAT WAT WAT WAT WAT WAT WAT WAT WAT WAT WAT 
WAT WAT WAT WAT WAT WAT WAT WAT WAT WAT WAT WAT WAT WAT WAT WAT WAT WAT WAT WAT 
WAT WAT WAT WAT WAT WAT WAT WAT WAT WAT WAT WAT WAT WAT WAT WAT WAT WAT WAT WAT 
WAT WAT WAT WAT WAT WAT WAT WAT WAT WAT WAT WAT WAT WAT WAT WAT WAT WAT WAT WAT 
WAT WAT WAT WAT WAT WAT WAT WAT WAT WAT WAT WAT WAT WAT WAT WAT WAT WAT WAT WAT 
WAT WAT WAT WAT WAT WAT WAT WAT WAT WAT WAT WAT WAT WAT WAT WAT WAT WAT WAT WAT 
WAT WAT WAT WAT WAT WAT WAT WAT WAT WAT WAT WAT WAT WAT WAT WAT WAT WAT WAT WAT 
WAT WAT WAT WAT WAT WAT WAT WAT WAT WAT WAT WAT WAT WAT WAT WAT WAT WAT WAT WAT 
WAT WAT WAT WAT WAT WAT WAT WAT WAT WAT WAT WAT WAT WAT WAT WAT WAT WAT WAT WAT 
WAT WAT WAT WAT WAT WAT WAT WAT WAT WAT WAT WAT WAT WAT WAT WAT WAT WAT WAT WAT 
WAT WAT WAT WAT WAT WAT WAT WAT WAT WAT WAT WAT WAT WAT WAT WAT WAT WAT WAT WAT 
WAT WAT WAT WAT WAT WAT WAT WAT WAT WAT WAT WAT WAT WAT WAT WAT WAT WAT WAT WAT 
WAT WAT WAT WAT WAT WAT WAT WAT WAT WAT WAT WAT WAT WAT WAT WAT WAT WAT WAT WAT 
WAT WAT WAT WAT WAT WAT WAT WAT WAT WAT WAT WAT WAT WAT WAT WAT WAT WAT WAT WAT 
WAT WAT WAT WAT WAT WAT WAT WAT WAT WAT WAT WAT WAT WAT WAT WAT WAT WAT WAT WAT 
WAT WAT WAT WAT WAT WAT WAT WAT WAT WAT WAT WAT WAT WAT WAT WAT WAT WAT WAT WAT 
WAT WAT WAT WAT WAT WAT WAT WAT WAT WAT WAT WAT WAT WAT WAT WAT WAT WAT WAT WAT 
WAT WAT WAT WAT WAT WAT WAT WAT WAT WAT WAT WAT WAT WAT WAT WAT WAT WAT WAT WAT 
WAT WAT WAT WAT WAT WAT WAT WAT WAT WAT WAT WAT WAT WAT WAT WAT WAT WAT WAT WAT 
WAT WAT WAT WAT WAT WAT WAT WAT WAT WAT WAT WAT WAT WAT WAT WAT WAT WAT WAT WAT 
WAT WAT WAT WAT WAT WAT WAT WAT WAT WAT WAT WAT WAT WAT WAT WAT WAT WAT WAT WAT 
WAT WAT WAT WAT WAT WAT WAT WAT WAT WAT WAT WAT WAT WAT WAT WAT WAT WAT WAT WAT 
WAT WAT WAT WAT WAT WAT WAT WAT WAT WAT WAT WAT WAT WAT WAT WAT WAT WAT WAT WAT 
WAT WAT WAT WAT WAT WAT WAT WAT WAT WAT WAT WAT WAT WAT WAT WAT WAT WAT WAT WAT 
WAT WAT WAT WAT WAT WAT WAT WAT WAT WAT WAT WAT WAT WAT WAT WAT WAT WAT WAT WAT 
WAT WAT WAT WAT WAT WAT WAT WAT WAT WAT WAT WAT WAT WAT WAT WAT WAT WAT WAT WAT 
WAT WAT WAT WAT WAT WAT WAT WAT WAT WAT WAT WAT WAT WAT WAT WAT WAT WAT WAT WAT 
WAT WAT WAT WAT WAT WAT WAT WAT WAT WAT WAT WAT WAT WAT WAT WAT WAT WAT WAT WAT 
WAT WAT WAT WAT WAT WAT WAT WAT WAT WAT WAT WAT WAT WAT WAT WAT WAT WAT WAT WAT 
WAT WAT WAT WAT WAT WAT WAT WAT WAT WAT WAT WAT WAT WAT WAT WAT WAT WAT WAT WAT 
WAT WAT WAT WAT WAT WAT WAT WAT WAT WAT WAT WAT WAT WAT WAT WAT WAT WAT WAT WAT 
WAT WAT WAT WAT WAT WAT WAT WAT WAT WAT WAT WAT WAT WAT WAT WAT WAT WAT WAT WAT 
WAT WAT WAT WAT WAT WAT WAT WAT WAT WAT WAT WAT WAT WAT WAT WAT WAT WAT WAT WAT 
WAT WAT WAT WAT WAT WAT WAT WAT WAT WAT WAT WAT WAT WAT WAT WAT WAT WAT WAT WAT 
WAT WAT WAT WAT WAT WAT WAT WAT WAT WAT WAT WAT WAT WAT WAT WAT WAT WAT WAT WAT 
WAT WAT WAT WAT WAT WAT WAT WAT WAT WAT WAT WAT WAT WAT WAT WAT WAT WAT WAT WAT 
WAT WAT WAT WAT WAT WAT WAT WAT WAT WAT WAT WAT WAT WAT WAT WAT WAT WAT WAT WAT 
WAT WAT WAT WAT WAT WAT WAT WAT WAT WAT WAT WAT WAT WAT WAT WAT WAT WAT WAT WAT 
WAT WAT WAT WAT WAT WAT WAT WAT WAT WAT WAT WAT WAT WAT WAT WAT WAT WAT WAT WAT 
WAT WAT WAT WAT WAT WAT WAT WAT WAT WAT WAT WAT WAT WAT WAT WAT WAT WAT WAT WAT 
WAT WAT WAT WAT WAT WAT WAT WAT WAT WAT WAT WAT WAT WAT WAT WAT WAT WAT WAT WAT 
WAT WAT WAT WAT WAT WAT WAT WAT WAT WAT WAT WAT WAT WAT WAT WAT WAT WAT WAT WAT 
WAT WAT WAT WAT WAT WAT WAT WAT WAT WAT WAT WAT WAT WAT WAT WAT WAT WAT WAT WAT 
WAT WAT WAT WAT WAT WAT WAT WAT WAT WAT WAT WAT WAT WAT WAT WAT WAT WAT WAT WAT 
WAT WAT WAT WAT WAT WAT WAT WAT WAT WAT WAT WAT WAT WAT WAT WAT WAT WAT WAT WAT 
WAT WAT WAT WAT WAT WAT WAT WAT WAT WAT WAT WAT WAT WAT WAT WAT WAT WAT WAT WAT 
WAT WAT WAT WAT WAT WAT WAT WAT WAT WAT WAT WAT WAT WAT WAT WAT WAT WAT WAT WAT 
WAT WAT WAT WAT WAT WAT WAT WAT WAT WAT WAT WAT WAT WAT WAT WAT WAT WAT WAT WAT 
WAT WAT WAT WAT WAT WAT WAT WAT WAT WAT WAT WAT WAT WAT WAT WAT WAT WAT WAT WAT 
WAT WAT WAT WAT WAT WAT WAT WAT WAT WAT WAT WAT WAT WAT WAT WAT WAT WAT WAT WAT 
WAT WAT WAT WAT WAT WAT WAT WAT WAT WAT WAT WAT WAT WAT WAT WAT WAT WAT WAT WAT 
WAT WAT WAT WAT WAT WAT WAT WAT WAT WAT WAT WAT WAT WAT WAT WAT WAT WAT WAT WAT 
WAT WAT WAT WAT WAT WAT WAT WAT WAT WAT WAT WAT WAT WAT WAT WAT WAT WAT WAT WAT 
WAT WAT WAT WAT WAT WAT WAT WAT WAT WAT WAT WAT WAT WAT WAT WAT WAT WAT WAT WAT 
WAT WAT WAT WAT WAT WAT WAT WAT WAT WAT WAT WAT WAT WAT WAT WAT WAT WAT WAT WAT 
WAT WAT WAT WAT WAT WAT WAT WAT WAT WAT WAT WAT WAT WAT WAT WAT WAT WAT WAT WAT 
WAT WAT WAT WAT WAT WAT WAT WAT WAT WAT WAT WAT WAT WAT WAT WAT WAT WAT WAT WAT 
WAT WAT WAT WAT WAT WAT WAT WAT WAT WAT WAT WAT WAT WAT WAT WAT WAT WAT WAT WAT 
WAT WAT WAT WAT WAT WAT WAT WAT WAT WAT WAT WAT WAT WAT WAT WAT WAT WAT WAT WAT 
WAT WAT WAT WAT WAT WAT WAT WAT WAT WAT WAT WAT WAT WAT WAT WAT WAT WAT WAT WAT 
WAT WAT WAT WAT WAT WAT WAT WAT WAT WAT WAT WAT WAT WAT WAT WAT WAT WAT WAT WAT 
WAT WAT WAT WAT WAT WAT WAT WAT WAT WAT WAT WAT WAT WAT WAT WAT WAT WAT WAT WAT 
WAT WAT WAT WAT WAT WAT WAT WAT WAT WAT WAT WAT WAT WAT WAT WAT WAT WAT WAT WAT 
WAT WAT WAT WAT WAT WAT WAT WAT WAT WAT WAT WAT WAT WAT WAT WAT WAT WAT WAT WAT 
WAT WAT WAT WAT WAT WAT WAT WAT WAT WAT WAT WAT WAT WAT WAT WAT WAT WAT WAT WAT 
WAT WAT WAT WAT WAT WAT WAT WAT WAT WAT WAT WAT WAT WAT WAT WAT WAT WAT WAT WAT 
WAT WAT WAT WAT WAT WAT WAT WAT WAT WAT WAT WAT WAT WAT WAT WAT WAT WAT WAT WAT 
WAT WAT WAT WAT WAT WAT WAT WAT WAT WAT WAT WAT WAT WAT WAT WAT WAT WAT WAT WAT 
WAT WAT WAT WAT WAT WAT WAT WAT WAT WAT WAT WAT WAT WAT WAT WAT WAT WAT WAT WAT 
WAT WAT WAT WAT WAT WAT WAT WAT WAT WAT WAT WAT WAT WAT WAT WAT WAT WAT WAT WAT 
WAT WAT WAT WAT WAT WAT WAT WAT WAT WAT WAT WAT WAT WAT WAT WAT WAT WAT WAT WAT 
WAT WAT WAT WAT WAT WAT WAT WAT WAT WAT WAT WAT WAT WAT WAT WAT WAT WAT WAT WAT 
WAT WAT WAT WAT WAT WAT WAT WAT WAT WAT WAT WAT WAT WAT WAT WAT WAT WAT WAT WAT 
WAT WAT WAT WAT WAT WAT WAT WAT WAT WAT WAT WAT WAT WAT WAT WAT WAT WAT WAT WAT 
WAT WAT WAT WAT WAT WAT WAT WAT WAT WAT WAT WAT WAT WAT WAT WAT WAT WAT WAT WAT 
WAT WAT WAT WAT WAT WAT WAT WAT WAT WAT WAT WAT WAT WAT WAT WAT WAT WAT WAT WAT 
WAT WAT WAT WAT WAT WAT WAT WAT WAT WAT WAT WAT WAT WAT WAT WAT WAT WAT WAT WAT 
WAT WAT WAT WAT WAT WAT WAT WAT WAT WAT WAT WAT WAT WAT WAT WAT WAT WAT WAT WAT 
WAT WAT WAT WAT WAT WAT WAT WAT WAT WAT WAT WAT WAT WAT WAT WAT WAT WAT WAT WAT 
WAT WAT WAT WAT WAT WAT WAT WAT WAT WAT WAT WAT WAT WAT WAT WAT WAT WAT WAT WAT 
WAT WAT WAT WAT WAT WAT WAT WAT WAT WAT WAT WAT WAT WAT WAT WAT WAT WAT WAT WAT 
WAT WAT WAT WAT WAT WAT WAT WAT WAT WAT WAT WAT WAT WAT WAT WAT WAT WAT WAT WAT 
WAT WAT WAT WAT WAT WAT WAT WAT WAT WAT WAT WAT WAT WAT WAT WAT WAT WAT WAT WAT 
WAT WAT WAT WAT WAT WAT WAT WAT WAT WAT WAT WAT WAT WAT WAT WAT WAT WAT WAT WAT 
WAT WAT WAT WAT WAT WAT WAT WAT WAT WAT WAT WAT WAT WAT WAT WAT WAT WAT WAT WAT 
WAT WAT WAT WAT WAT WAT WAT WAT WAT WAT WAT WAT WAT WAT WAT WAT WAT WAT WAT WAT 
WAT WAT WAT WAT WAT WAT WAT WAT WAT WAT WAT WAT WAT WAT WAT WAT WAT WAT WAT WAT 
WAT WAT WAT WAT WAT WAT WAT WAT WAT WAT WAT WAT WAT WAT WAT WAT WAT WAT WAT WAT 
WAT WAT WAT WAT WAT WAT WAT WAT WAT WAT WAT WAT WAT WAT WAT WAT WAT WAT WAT WAT 
WAT WAT WAT WAT WAT WAT WAT WAT WAT WAT WAT WAT WAT WAT WAT WAT WAT WAT WAT WAT 
WAT WAT WAT WAT WAT WAT WAT WAT WAT WAT WAT WAT WAT WAT WAT WAT WAT WAT WAT WAT 
WAT WAT WAT WAT WAT WAT WAT WAT WAT WAT WAT WAT WAT WAT WAT WAT WAT WAT WAT WAT 
WAT WAT WAT WAT WAT WAT WAT WAT WAT WAT WAT WAT WAT WAT WAT WAT WAT WAT WAT WAT 
WAT WAT WAT WAT WAT WAT WAT WAT WAT WAT WAT WAT WAT WAT WAT WAT WAT WAT WAT WAT 
WAT WAT WAT WAT WAT WAT WAT WAT WAT WAT WAT WAT WAT WAT WAT WAT WAT WAT WAT WAT 
WAT WAT WAT WAT WAT WAT WAT WAT WAT WAT WAT WAT WAT WAT WAT WAT WAT WAT WAT WAT 
WAT WAT WAT WAT WAT WAT WAT WAT WAT WAT WAT WAT WAT WAT WAT WAT WAT WAT WAT WAT 
WAT WAT WAT WAT WAT WAT WAT WAT WAT WAT WAT WAT WAT WAT WAT WAT WAT WAT WAT WAT 
WAT WAT WAT WAT WAT WAT WAT WAT WAT WAT WAT WAT WAT WAT WAT WAT WAT WAT WAT WAT 
WAT WAT WAT WAT WAT WAT WAT WAT WAT WAT WAT WAT WAT WAT WAT WAT WAT WAT WAT WAT 
WAT WAT WAT WAT WAT WAT WAT WAT WAT WAT WAT WAT WAT WAT WAT WAT WAT WAT WAT WAT 
WAT WAT WAT WAT WAT WAT WAT WAT WAT WAT WAT WAT WAT WAT WAT WAT WAT WAT WAT WAT 
WAT WAT WAT WAT WAT WAT WAT WAT WAT WAT WAT WAT WAT WAT WAT WAT WAT WAT WAT WAT 
WAT WAT WAT WAT WAT WAT WAT WAT WAT WAT WAT WAT WAT WAT WAT WAT WAT WAT WAT WAT 
WAT WAT WAT WAT WAT WAT WAT WAT WAT WAT WAT WAT WAT WAT WAT WAT WAT WAT WAT WAT 
WAT WAT WAT WAT WAT WAT WAT WAT WAT WAT WAT WAT WAT WAT WAT WAT WAT WAT WAT WAT 
WAT WAT WAT WAT WAT WAT WAT WAT WAT WAT WAT WAT WAT WAT WAT WAT WAT WAT WAT WAT 
WAT WAT WAT WAT WAT WAT WAT WAT WAT WAT WAT WAT WAT WAT WAT WAT WAT WAT WAT WAT 
WAT WAT WAT WAT WAT WAT WAT WAT WAT WAT WAT WAT WAT WAT WAT WAT WAT WAT WAT WAT 
WAT WAT WAT WAT WAT WAT WAT WAT WAT WAT WAT WAT WAT WAT WAT WAT WAT WAT WAT WAT 
WAT WAT WAT WAT WAT WAT WAT WAT WAT WAT WAT WAT WAT WAT WAT WAT WAT WAT WAT WAT 
WAT WAT WAT WAT WAT WAT WAT WAT WAT WAT WAT WAT WAT WAT WAT WAT WAT WAT WAT WAT 
WAT WAT WAT WAT WAT WAT WAT WAT WAT WAT WAT WAT WAT WAT WAT WAT WAT WAT WAT WAT 
WAT WAT WAT WAT WAT WAT WAT WAT WAT WAT WAT WAT WAT WAT WAT WAT WAT WAT WAT WAT 
WAT WAT WAT WAT WAT WAT WAT WAT WAT WAT WAT WAT WAT WAT WAT WAT WAT WAT WAT WAT 
WAT WAT WAT WAT WAT WAT WAT WAT WAT WAT WAT WAT WAT WAT WAT WAT WAT WAT WAT WAT 
WAT WAT WAT WAT WAT WAT WAT WAT WAT WAT WAT WAT WAT WAT WAT WAT WAT WAT WAT WAT 
WAT WAT WAT WAT WAT WAT WAT WAT WAT WAT WAT WAT WAT WAT WAT WAT WAT WAT WAT WAT 
WAT WAT WAT WAT WAT WAT WAT WAT WAT WAT WAT WAT WAT WAT WAT WAT WAT WAT WAT WAT 
WAT WAT WAT WAT WAT WAT WAT WAT WAT WAT WAT WAT WAT WAT WAT WAT WAT WAT WAT WAT 
WAT WAT WAT WAT WAT WAT WAT WAT WAT WAT WAT WAT WAT WAT WAT WAT WAT WAT WAT WAT 
WAT WAT WAT WAT WAT WAT WAT WAT WAT WAT WAT WAT WAT WAT WAT WAT WAT WAT WAT WAT 
WAT WAT WAT WAT WAT WAT WAT WAT WAT WAT WAT WAT WAT WAT WAT WAT WAT WAT WAT WAT 
WAT WAT WAT WAT WAT WAT WAT WAT WAT WAT WAT WAT WAT WAT WAT WAT WAT WAT WAT WAT 
WAT WAT WAT WAT WAT WAT WAT WAT WAT WAT WAT WAT WAT WAT WAT WAT WAT WAT WAT WAT 
WAT WAT WAT WAT WAT WAT WAT WAT WAT WAT WAT WAT WAT WAT WAT WAT WAT WAT WAT WAT 
WAT WAT WAT WAT WAT WAT WAT WAT WAT WAT WAT WAT WAT WAT WAT WAT WAT WAT WAT WAT 
WAT WAT WAT WAT WAT WAT WAT WAT WAT WAT WAT WAT WAT WAT WAT WAT WAT WAT WAT WAT 
WAT WAT WAT WAT WAT WAT WAT WAT WAT WAT WAT WAT WAT WAT WAT WAT WAT WAT WAT WAT 
WAT WAT WAT WAT WAT WAT WAT WAT WAT WAT WAT WAT WAT WAT WAT WAT WAT WAT WAT WAT 
WAT WAT WAT WAT WAT WAT WAT WAT WAT WAT WAT WAT WAT WAT WAT WAT WAT WAT WAT WAT 
WAT WAT WAT WAT WAT WAT WAT WAT WAT WAT WAT WAT WAT WAT WAT WAT WAT WAT WAT WAT 
WAT WAT WAT WAT WAT WAT WAT WAT WAT WAT WAT WAT WAT WAT WAT WAT WAT WAT WAT WAT 
WAT WAT WAT WAT WAT WAT WAT WAT WAT WAT WAT WAT WAT WAT WAT WAT WAT WAT WAT WAT 
WAT WAT WAT WAT WAT WAT WAT WAT WAT WAT WAT WAT WAT WAT WAT WAT WAT WAT WAT WAT 
WAT WAT WAT WAT WAT WAT WAT WAT WAT WAT WAT WAT WAT WAT WAT WAT WAT WAT WAT WAT 
WAT WAT WAT WAT WAT WAT WAT WAT WAT WAT WAT WAT WAT WAT WAT WAT WAT WAT WAT WAT 
WAT WAT WAT WAT WAT WAT WAT WAT WAT WAT WAT WAT WAT WAT WAT WAT WAT WAT WAT WAT 
WAT WAT WAT WAT WAT WAT WAT WAT WAT WAT WAT WAT WAT WAT WAT WAT WAT WAT WAT WAT 
WAT WAT WAT WAT WAT WAT WAT WAT WAT WAT WAT WAT WAT WAT WAT WAT WAT WAT WAT WAT 
WAT WAT WAT WAT WAT WAT WAT WAT WAT WAT WAT WAT WAT WAT WAT WAT WAT WAT WAT WAT 
WAT WAT WAT WAT WAT WAT WAT WAT WAT WAT WAT WAT WAT WAT WAT WAT WAT WAT WAT WAT 
WAT WAT WAT WAT WAT WAT WAT WAT WAT WAT WAT WAT WAT WAT WAT WAT WAT WAT WAT WAT 
WAT WAT WAT WAT WAT WAT WAT WAT WAT WAT WAT WAT WAT WAT WAT WAT WAT WAT WAT WAT 
WAT WAT WAT WAT WAT WAT WAT WAT WAT WAT WAT WAT WAT WAT WAT WAT WAT WAT WAT WAT 
WAT WAT WAT WAT WAT WAT WAT WAT WAT WAT WAT WAT WAT WAT WAT WAT WAT WAT WAT WAT 
WAT WAT WAT WAT WAT WAT WAT WAT WAT WAT WAT WAT WAT WAT WAT WAT WAT WAT WAT WAT 
WAT WAT WAT WAT WAT WAT WAT WAT WAT WAT WAT WAT WAT WAT WAT WAT WAT WAT WAT WAT 
WAT WAT WAT WAT WAT WAT WAT WAT WAT WAT WAT WAT WAT WAT WAT WAT WAT WAT WAT WAT 
WAT WAT WAT WAT WAT WAT WAT WAT WAT WAT WAT WAT WAT WAT WAT WAT WAT WAT WAT WAT 
WAT WAT WAT WAT WAT WAT WAT WAT WAT WAT WAT WAT WAT WAT WAT WAT WAT WAT WAT WAT 
WAT WAT WAT WAT WAT WAT WAT WAT WAT WAT WAT WAT WAT WAT WAT WAT WAT WAT WAT WAT 
WAT WAT WAT WAT WAT WAT WAT WAT WAT WAT WAT WAT WAT WAT WAT WAT WAT WAT WAT WAT 
WAT WAT WAT WAT WAT WAT WAT WAT WAT WAT WAT WAT WAT WAT WAT WAT WAT WAT WAT WAT 
WAT WAT WAT WAT WAT WAT WAT WAT WAT WAT WAT WAT WAT WAT WAT WAT WAT WAT WAT WAT 
WAT WAT WAT WAT WAT WAT WAT WAT WAT WAT WAT WAT WAT WAT WAT WAT WAT WAT WAT WAT 
WAT WAT WAT WAT WAT WAT WAT WAT WAT WAT WAT WAT WAT WAT WAT WAT WAT WAT WAT WAT 
WAT WAT WAT WAT WAT WAT WAT WAT WAT WAT WAT WAT WAT WAT WAT WAT WAT WAT WAT WAT 
WAT WAT WAT WAT WAT WAT WAT WAT WAT WAT WAT WAT WAT WAT WAT WAT WAT WAT WAT WAT 
WAT WAT WAT WAT WAT WAT WAT WAT WAT WAT WAT WAT WAT WAT WAT WAT WAT WAT WAT WAT 
WAT WAT WAT WAT WAT WAT WAT WAT WAT WAT WAT WAT WAT WAT WAT WAT WAT WAT WAT WAT 
WAT WAT WAT WAT WAT WAT WAT WAT WAT WAT WAT WAT WAT WAT WAT WAT WAT WAT WAT WAT 
WAT WAT WAT WAT WAT WAT WAT WAT WAT WAT WAT WAT WAT WAT WAT WAT WAT WAT WAT WAT 
WAT WAT WAT WAT WAT WAT WAT WAT WAT WAT WAT WAT WAT WAT WAT WAT WAT WAT WAT WAT 
WAT WAT WAT WAT WAT WAT WAT WAT WAT WAT WAT WAT WAT WAT WAT WAT WAT WAT WAT WAT 
WAT WAT WAT WAT WAT WAT WAT WAT WAT WAT WAT WAT WAT WAT WAT WAT WAT WAT WAT WAT 
WAT WAT WAT WAT WAT WAT WAT WAT WAT WAT WAT WAT WAT WAT WAT WAT WAT WAT WAT WAT 
WAT WAT WAT WAT WAT WAT WAT WAT WAT WAT WAT WAT WAT WAT WAT WAT WAT WAT WAT WAT 
WAT WAT WAT WAT WAT WAT WAT WAT WAT WAT WAT WAT WAT WAT WAT WAT WAT WAT WAT WAT 
WAT WAT WAT WAT WAT WAT WAT WAT WAT WAT WAT WAT WAT WAT WAT WAT WAT WAT WAT WAT 
WAT WAT WAT WAT WAT WAT WAT WAT WAT WAT WAT WAT WAT WAT WAT WAT WAT WAT WAT WAT 
WAT WAT WAT WAT WAT WAT WAT WAT WAT WAT WAT WAT WAT WAT WAT WAT WAT WAT WAT WAT 
WAT WAT WAT WAT WAT WAT WAT WAT WAT WAT WAT WAT WAT WAT WAT WAT WAT WAT WAT WAT 
WAT WAT WAT WAT WAT WAT WAT WAT WAT WAT WAT WAT WAT WAT WAT WAT WAT WAT WAT WAT 
WAT WAT WAT WAT WAT WAT WAT WAT WAT WAT WAT WAT WAT WAT WAT WAT WAT WAT WAT WAT 
WAT WAT WAT WAT WAT WAT WAT WAT WAT WAT WAT WAT WAT WAT WAT WAT WAT WAT WAT WAT 
WAT WAT WAT WAT WAT WAT WAT WAT WAT WAT WAT WAT WAT WAT WAT WAT WAT WAT WAT WAT 
WAT WAT WAT WAT WAT WAT WAT WAT WAT WAT WAT WAT WAT WAT WAT WAT WAT WAT WAT WAT 
WAT WAT WAT WAT WAT WAT WAT WAT WAT WAT WAT WAT WAT WAT WAT WAT WAT WAT WAT WAT 
WAT WAT WAT WAT WAT WAT WAT WAT WAT WAT WAT WAT WAT WAT WAT WAT WAT WAT WAT WAT 
WAT WAT WAT WAT WAT WAT WAT WAT WAT WAT WAT WAT WAT WAT WAT WAT WAT WAT WAT WAT 
WAT WAT WAT WAT WAT WAT WAT WAT WAT WAT WAT WAT WAT WAT WAT WAT WAT WAT WAT WAT 
WAT WAT WAT WAT WAT WAT WAT WAT WAT WAT WAT WAT WAT WAT WAT WAT WAT WAT WAT WAT 
WAT WAT WAT WAT WAT WAT WAT WAT WAT WAT WAT WAT WAT WAT WAT WAT WAT WAT WAT WAT 
WAT WAT WAT WAT WAT WAT WAT WAT WAT WAT WAT WAT WAT WAT WAT WAT WAT WAT WAT WAT 
WAT WAT WAT WAT WAT WAT WAT WAT WAT WAT WAT WAT WAT WAT WAT WAT WAT WAT WAT WAT 
WAT WAT WAT WAT WAT WAT WAT WAT WAT WAT WAT WAT WAT WAT WAT WAT WAT WAT WAT WAT 
WAT WAT WAT WAT WAT WAT WAT WAT WAT WAT WAT WAT WAT WAT WAT WAT WAT WAT WAT WAT 
WAT WAT WAT WAT WAT WAT WAT WAT WAT WAT WAT WAT WAT WAT WAT WAT WAT WAT WAT WAT 
WAT WAT WAT WAT WAT WAT WAT WAT WAT WAT WAT WAT WAT WAT WAT WAT WAT WAT WAT WAT 
WAT WAT WAT WAT WAT WAT WAT WAT WAT WAT WAT WAT WAT WAT WAT WAT WAT WAT WAT WAT 
WAT WAT WAT WAT WAT WAT WAT WAT WAT WAT WAT WAT WAT WAT WAT WAT WAT WAT WAT WAT 
WAT WAT WAT WAT WAT WAT WAT WAT WAT WAT WAT WAT WAT WAT WAT WAT WAT WAT WAT WAT 
WAT WAT WAT WAT WAT WAT WAT WAT WAT WAT WAT WAT WAT WAT WAT WAT WAT WAT WAT WAT 
WAT WAT WAT WAT WAT WAT WAT WAT WAT WAT WAT WAT WAT WAT WAT WAT WAT WAT WAT WAT 
WAT WAT WAT WAT WAT WAT WAT WAT WAT WAT WAT WAT WAT WAT WAT WAT WAT WAT WAT WAT 
WAT WAT WAT WAT WAT WAT WAT WAT WAT WAT WAT WAT WAT WAT WAT WAT WAT WAT WAT WAT 
WAT WAT WAT WAT WAT WAT WAT WAT WAT WAT WAT WAT WAT WAT WAT WAT WAT WAT WAT WAT 
WAT WAT WAT WAT WAT WAT WAT WAT WAT WAT WAT WAT WAT WAT WAT WAT WAT WAT WAT WAT 
WAT WAT WAT WAT WAT WAT WAT WAT WAT WAT WAT WAT WAT WAT WAT WAT WAT WAT WAT WAT 
WAT WAT WAT WAT WAT WAT WAT WAT WAT WAT WAT WAT WAT WAT WAT WAT WAT WAT WAT WAT 
WAT WAT WAT WAT WAT WAT WAT WAT WAT WAT WAT WAT WAT WAT WAT WAT WAT WAT WAT WAT 
WAT WAT WAT WAT WAT WAT WAT WAT WAT WAT WAT WAT WAT WAT WAT WAT WAT WAT WAT WAT 
WAT WAT WAT WAT WAT WAT WAT WAT WAT WAT WAT WAT WAT WAT WAT WAT WAT WAT WAT WAT 
WAT WAT WAT WAT WAT WAT WAT WAT WAT WAT WAT WAT WAT WAT WAT WAT WAT WAT WAT WAT 
WAT WAT WAT WAT WAT WAT WAT WAT WAT WAT WAT WAT WAT WAT WAT WAT WAT WAT WAT WAT 
WAT WAT WAT WAT WAT WAT WAT WAT WAT WAT WAT WAT WAT WAT WAT WAT WAT WAT WAT WAT 
WAT WAT WAT WAT WAT WAT WAT WAT WAT WAT WAT WAT WAT WAT WAT WAT WAT WAT WAT WAT 
WAT WAT WAT WAT WAT WAT WAT WAT WAT WAT WAT WAT WAT WAT WAT WAT WAT WAT WAT WAT 
WAT WAT WAT WAT WAT WAT WAT WAT WAT WAT WAT WAT WAT WAT WAT WAT WAT WAT WAT WAT 
WAT WAT WAT WAT WAT WAT WAT WAT WAT WAT WAT WAT WAT WAT WAT WAT WAT WAT WAT WAT 
WAT WAT WAT WAT WAT WAT WAT WAT WAT WAT WAT WAT WAT WAT WAT WAT WAT WAT WAT WAT 
WAT WAT WAT WAT WAT WAT WAT WAT WAT WAT WAT WAT WAT WAT WAT WAT WAT WAT WAT WAT 
WAT WAT WAT WAT WAT WAT WAT WAT WAT WAT WAT WAT WAT WAT WAT WAT WAT WAT WAT WAT 
WAT WAT WAT WAT WAT WAT WAT WAT WAT WAT WAT WAT WAT WAT WAT WAT WAT WAT WAT WAT 
WAT WAT WAT WAT WAT WAT WAT WAT WAT WAT WAT WAT WAT WAT WAT WAT WAT WAT WAT WAT 
WAT WAT WAT WAT WAT WAT WAT WAT WAT WAT WAT WAT WAT WAT WAT WAT WAT WAT WAT WAT 
WAT WAT WAT WAT WAT WAT WAT WAT WAT WAT WAT WAT WAT WAT WAT WAT WAT WAT WAT WAT 
WAT WAT WAT WAT WAT WAT WAT WAT WAT WAT WAT WAT WAT WAT WAT WAT WAT WAT WAT WAT 
WAT WAT WAT WAT WAT WAT WAT WAT WAT WAT WAT WAT WAT WAT WAT WAT WAT WAT WAT WAT 
WAT WAT WAT WAT WAT WAT WAT WAT WAT WAT WAT WAT WAT WAT WAT WAT WAT WAT WAT WAT 
WAT WAT WAT WAT WAT WAT WAT WAT WAT WAT WAT WAT WAT WAT WAT WAT WAT WAT WAT WAT 
WAT WAT WAT WAT WAT WAT WAT WAT WAT WAT WAT WAT WAT WAT WAT WAT WAT WAT WAT WAT 
WAT WAT WAT WAT WAT WAT WAT WAT WAT WAT WAT WAT WAT WAT WAT WAT WAT WAT WAT WAT 
WAT WAT WAT WAT WAT WAT WAT WAT WAT WAT WAT WAT WAT WAT WAT WAT WAT WAT WAT WAT 
WAT WAT WAT WAT WAT WAT WAT WAT WAT WAT WAT WAT WAT WAT WAT WAT WAT WAT WAT WAT 
WAT WAT WAT WAT WAT WAT WAT WAT WAT WAT WAT WAT WAT WAT WAT WAT WAT WAT WAT WAT 
WAT WAT WAT WAT WAT WAT WAT WAT WAT WAT WAT WAT WAT WAT WAT WAT WAT WAT WAT WAT 
WAT WAT WAT WAT WAT WAT WAT WAT WAT WAT WAT WAT WAT WAT WAT WAT WAT WAT WAT WAT 
WAT WAT WAT WAT WAT WAT WAT WAT WAT WAT WAT WAT WAT WAT WAT WAT WAT WAT WAT WAT 
WAT WAT WAT WAT WAT WAT WAT WAT WAT WAT WAT WAT WAT WAT WAT WAT WAT WAT WAT WAT 
WAT WAT WAT WAT WAT WAT WAT WAT WAT WAT WAT WAT WAT WAT WAT WAT WAT WAT WAT WAT 
WAT WAT WAT WAT WAT WAT WAT WAT WAT WAT WAT WAT WAT WAT WAT WAT WAT WAT WAT WAT 
WAT WAT WAT WAT WAT WAT WAT WAT WAT WAT WAT WAT WAT WAT WAT WAT WAT WAT WAT WAT 
WAT WAT WAT WAT WAT WAT WAT WAT WAT WAT WAT WAT WAT WAT WAT WAT WAT WAT WAT WAT 
WAT WAT WAT WAT WAT WAT WAT WAT WAT WAT WAT WAT WAT WAT WAT WAT WAT WAT WAT WAT 
WAT WAT WAT WAT WAT WAT WAT WAT WAT WAT WAT WAT WAT WAT WAT WAT WAT WAT WAT WAT 
WAT WAT WAT WAT WAT WAT WAT WAT WAT WAT WAT WAT WAT WAT WAT WAT WAT WAT WAT WAT 
WAT WAT WAT WAT WAT WAT WAT WAT WAT WAT WAT WAT WAT WAT WAT WAT WAT WAT WAT WAT 
WAT WAT WAT WAT WAT WAT WAT WAT WAT WAT WAT WAT WAT WAT WAT WAT WAT WAT WAT WAT 
WAT WAT WAT WAT WAT WAT WAT WAT WAT WAT WAT WAT WAT WAT WAT WAT WAT WAT WAT WAT 
WAT WAT WAT WAT WAT WAT WAT WAT WAT WAT WAT WAT WAT WAT WAT WAT WAT WAT WAT WAT 
WAT WAT WAT WAT WAT WAT WAT WAT WAT WAT WAT WAT WAT WAT WAT WAT WAT WAT WAT WAT 
WAT WAT WAT WAT WAT WAT WAT WAT WAT WAT WAT WAT WAT WAT WAT WAT WAT WAT WAT WAT 
WAT WAT WAT WAT WAT WAT WAT WAT WAT WAT WAT WAT WAT WAT WAT WAT WAT WAT WAT WAT 
WAT WAT WAT WAT WAT WAT WAT WAT WAT WAT WAT WAT WAT WAT WAT WAT WAT WAT WAT WAT 
WAT WAT WAT WAT WAT WAT WAT WAT WAT WAT WAT WAT WAT WAT WAT WAT WAT WAT WAT WAT 
WAT WAT WAT WAT WAT WAT WAT WAT WAT WAT WAT WAT WAT WAT WAT WAT WAT WAT WAT WAT 
WAT WAT WAT WAT WAT WAT WAT WAT WAT WAT WAT WAT WAT WAT WAT WAT WAT WAT WAT WAT 
WAT WAT WAT WAT WAT WAT WAT WAT WAT WAT WAT WAT WAT WAT WAT WAT WAT WAT WAT WAT 
WAT WAT WAT WAT WAT WAT WAT WAT WAT WAT WAT WAT WAT WAT WAT WAT WAT WAT WAT WAT 
WAT WAT WAT WAT WAT WAT WAT WAT WAT WAT WAT WAT WAT WAT WAT WAT WAT WAT WAT WAT 
WAT WAT WAT WAT WAT WAT WAT WAT WAT WAT WAT WAT WAT WAT WAT WAT WAT WAT WAT WAT 
WAT WAT WAT WAT WAT WAT WAT WAT WAT WAT WAT WAT WAT WAT WAT WAT WAT WAT WAT WAT 
WAT WAT WAT WAT WAT WAT WAT WAT WAT WAT WAT WAT WAT WAT WAT WAT WAT WAT WAT WAT 
WAT WAT WAT WAT WAT WAT WAT WAT WAT WAT WAT WAT WAT WAT WAT WAT WAT WAT WAT WAT 
WAT WAT WAT WAT WAT WAT WAT WAT WAT WAT WAT WAT WAT WAT WAT WAT WAT WAT WAT WAT 
WAT WAT WAT WAT WAT WAT WAT WAT WAT WAT WAT WAT WAT WAT WAT WAT WAT WAT WAT WAT 
WAT WAT WAT WAT WAT WAT WAT WAT WAT WAT WAT WAT WAT WAT WAT WAT WAT WAT WAT WAT 
WAT WAT WAT WAT WAT WAT WAT WAT WAT WAT WAT WAT WAT WAT WAT WAT WAT WAT WAT WAT 
WAT WAT WAT WAT WAT WAT WAT WAT WAT WAT WAT WAT WAT WAT WAT WAT WAT WAT WAT WAT 
WAT WAT WAT WAT WAT WAT WAT WAT WAT WAT WAT WAT WAT WAT WAT WAT WAT WAT WAT WAT 
WAT WAT WAT WAT WAT WAT WAT WAT WAT WAT WAT WAT WAT WAT WAT WAT WAT WAT WAT WAT 
WAT WAT WAT WAT WAT WAT WAT WAT WAT WAT WAT WAT WAT WAT WAT WAT WAT WAT WAT WAT 
WAT WAT WAT WAT WAT WAT WAT WAT WAT WAT WAT WAT WAT WAT WAT WAT WAT WAT WAT WAT 
WAT WAT WAT WAT WAT WAT WAT WAT WAT WAT WAT WAT WAT WAT WAT WAT WAT WAT WAT WAT 
WAT WAT WAT WAT WAT WAT WAT WAT WAT WAT WAT WAT WAT WAT WAT WAT WAT WAT WAT WAT 
WAT WAT WAT WAT WAT WAT WAT WAT WAT WAT WAT WAT WAT WAT WAT WAT WAT WAT WAT WAT 
WAT WAT WAT WAT WAT WAT WAT WAT WAT WAT WAT WAT WAT WAT WAT WAT WAT WAT WAT WAT 
WAT WAT WAT WAT WAT WAT WAT WAT WAT WAT WAT WAT WAT WAT WAT WAT WAT WAT WAT WAT 
WAT WAT WAT WAT WAT WAT WAT WAT WAT WAT WAT WAT WAT WAT WAT WAT WAT WAT WAT WAT 
WAT WAT WAT WAT WAT WAT WAT WAT WAT WAT WAT WAT WAT WAT WAT WAT WAT WAT WAT WAT 
WAT WAT WAT WAT WAT WAT WAT WAT WAT WAT WAT WAT WAT WAT WAT WAT WAT WAT WAT WAT 
WAT WAT WAT WAT WAT WAT WAT WAT WAT WAT WAT WAT WAT WAT WAT WAT WAT WAT WAT WAT 
WAT WAT WAT WAT WAT WAT WAT WAT WAT WAT WAT WAT WAT WAT WAT WAT WAT WAT WAT WAT 
WAT WAT WAT WAT WAT WAT WAT WAT WAT WAT WAT WAT WAT WAT WAT WAT WAT WAT WAT WAT 
WAT WAT WAT WAT WAT WAT WAT WAT WAT WAT WAT WAT WAT WAT WAT WAT WAT WAT WAT WAT 
WAT WAT WAT WAT WAT WAT WAT WAT WAT WAT WAT WAT WAT WAT WAT WAT WAT WAT WAT WAT 
WAT WAT WAT WAT WAT WAT WAT WAT WAT WAT WAT WAT WAT WAT WAT WAT WAT WAT WAT WAT 
WAT WAT WAT WAT WAT WAT WAT WAT WAT WAT WAT WAT WAT WAT WAT WAT WAT WAT 
%FLAG RESIDUE_POINTER                                                           
%FORMAT(10I8)                                                                   
       1      27      30      85     140     195     250     305     360     415
     470     525     580     583     586     641     696     751     806     861
     916     971    1026    1081    1136    1139    1142    1197    1252    1307
    1362    1417    1472    1527    1582    1637    1692    1695    1698    1701
    1704    1707    1710    1713    1716    1719    1722    1725    1728    1731
    1734    1737    1740    1743    1746    1749    1752    1755    1758    1761
    1764    1767    1770    1773    1776    1779    1782    1785    1788    1791
    1794    1797    1800    1803    1806    1809    1812    1815    1818    1821
    1824    1827    1830    1833    1836    1839    1842    1845    1848    1851
    1854    1857    1860    1863    1866    1869    1872    1875    1878    1881
    1884    1887    1890    1893    1896    1899    1902    1905    1908    1911
    1914    1917    1920    1923    1926    1929    1932    1935    1938    1941
    1944    1947    1950    1953    1956    1959    1962    1965    1968    1971
    1974    1977    1980    1983    1986    1989    1992    1995    1998    2001
    2004    2007    2010    2013    2016    2019    2022    2025    2028    2031
    2034    2037    2040    2043    2046    2049    2052    2055    2058    2061
    2064    2067    2070    2073    2076    2079    2082    2085    2088    2091
    2094    2097    2100    2103    2106    2109    2112    2115    2118    2121
    2124    2127    2130    2133    2136    2139    2142    2145    2148    2151
    2154    2157    2160    2163    2166    2169    2172    2175    2178    2181
    2184    2187    2190    2193    2196    2199    2202    2205    2208    2211
    2214    2217    2220    2223    2226    2229    2232    2235    2238    2241
    2244    2247    2250    2253    2256    2259    2262    2265    2268    2271
    2274    2277    2280    2283    2286    2289    2292    2295    2298    2301
    2304    2307    2310    2313    2316    2319    2322    2325    2328    2331
    2334    2337    2340    2343    2346    2349    2352    2355    2358    2361
    2364    2367    2370    2373    2376    2379    2382    2385    2388    2391
    2394    2397    2400    2403    2406    2409    2412    2415    2418    2421
    2424    2427    2430    2433    2436    2439    2442    2445    2448    2451
    2454    2457    2460    2463    2466    2469    2472    2475    2478    2481
    2484    2487    2490    2493    2496    2499    2502    2505    2508    2511
    2514    2517    2520    2523    2526    2529    2532    2535    2538    2541
    2544    2547    2550    2553    2556    2559    2562    2565    2568    2571
    2574    2577    2580    2583    2586    2589    2592    2595    2598    2601
    2604    2607    2610    2613    2616    2619    2622    2625    2628    2631
    2634    2637    2640    2643    2646    2649    2652    2655    2658    2661
    2664    2667    2670    2673    2676    2679    2682    2685    2688    2691
    2694    2697    2700    2703    2706    2709    2712    2715    2718    2721
    2724    2727    2730    2733    2736    2739    2742    2745    2748    2751
    2754    2757    2760    2763    2766    2769    2772    2775    2778    2781
    2784    2787    2790    2793    2796    2799    2802    2805    2808    2811
    2814    2817    2820    2823    2826    2829    2832    2835    2838    2841
    2844    2847    2850    2853    2856    2859    2862    2865    2868    2871
    2874    2877    2880    2883    2886    2889    2892    2895    2898    2901
    2904    2907    2910    2913    2916    2919    2922    2925    2928    2931
    2934    2937    2940    2943    2946    2949    2952    2955    2958    2961
    2964    2967    2970    2973    2976    2979    2982    2985    2988    2991
    2994    2997    3000    3003    3006    3009    3012    3015    3018    3021
    3024    3027    3030    3033    3036    3039    3042    3045    3048    3051
    3054    3057    3060    3063    3066    3069    3072    3075    3078    3081
    3084    3087    3090    3093    3096    3099    3102    3105    3108    3111
    3114    3117    3120    3123    3126    3129    3132    3135    3138    3141
    3144    3147    3150    3153    3156    3159    3162    3165    3168    3171
    3174    3177    3180    3183    3186    3189    3192    3195    3198    3201
    3204    3207    3210    3213    3216    3219    3222    3225    3228    3231
    3234    3237    3240    3243    3246    3249    3252    3255    3258    3261
    3264    3267    3270    3273    3276    3279    3282    3285    3288    3291
    3294    3297    3300    3303    3306    3309    3312    3315    3318    3321
    3324    3327    3330    3333    3336    3339    3342    3345    3348    3351
    3354    3357    3360    3363    3366    3369    3372    3375    3378    3381
    3384    3387    3390    3393    3396    3399    3402    3405    3408    3411
    3414    3417    3420    3423    3426    3429    3432    3435    3438    3441
    3444    3447    3450    3453    3456    3459    3462    3465    3468    3471
    3474    3477    3480    3483    3486    3489    3492    3495    3498    3501
    3504    3507    3510    3513    3516    3519    3522    3525    3528    3531
    3534    3537    3540    3543    3546    3549    3552    3555    3558    3561
    3564    3567    3570    3573    3576    3579    3582    3585    3588    3591
    3594    3597    3600    3603    3606    3609    3612    3615    3618    3621
    3624    3627    3630    3633    3636    3639    3642    3645    3648    3651
    3654    3657    3660    3663    3666    3669    3672    3675    3678    3681
    3684    3687    3690    3693    3696    3699    3702    3705    3708    3711
    3714    3717    3720    3723    3726    3729    3732    3735    3738    3741
    3744    3747    3750    3753    3756    3759    3762    3765    3768    3771
    3774    3777    3780    3783    3786    3789    3792    3795    3798    3801
    3804    3807    3810    3813    3816    3819    3822    3825    3828    3831
    3834    3837    3840    3843    3846    3849    3852    3855    3858    3861
    3864    3867    3870    3873    3876    3879    3882    3885    3888    3891
    3894    3897    3900    3903    3906    3909    3912    3915    3918    3921
    3924    3927    3930    3933    3936    3939    3942    3945    3948    3951
    3954    3957    3960    3963    3966    3969    3972    3975    3978    3981
    3984    3987    3990    3993    3996    3999    4002    4005    4008    4011
    4014    4017    4020    4023    4026    4029    4032    4035    4038    4041
    4044    4047    4050    4053    4056    4059    4062    4065    4068    4071
    4074    4077    4080    4083    4086    4089    4092    4095    4098    4101
    4104    4107    4110    4113    4116    4119    4122    4125    4128    4131
    4134    4137    4140    4143    4146    4149    4152    4155    4158    4161
    4164    4167    4170    4173    4176    4179    4182    4185    4188    4191
    4194    4197    4200    4203    4206    4209    4212    4215    4218    4221
    4224    4227    4230    4233    4236    4239    4242    4245    4248    4251
    4254    4257    4260    4263    4266    4269    4272    4275    4278    4281
    4284    4287    4290    4293    4296    4299    4302    4305    4308    4311
    4314    4317    4320    4323    4326    4329    4332    4335    4338    4341
    4344    4347    4350    4353    4356    4359    4362    4365    4368    4371
    4374    4377    4380    4383    4386    4389    4392    4395    4398    4401
    4404    4407    4410    4413    4416    4419    4422    4425    4428    4431
    4434    4437    4440    4443    4446    4449    4452    4455    4458    4461
    4464    4467    4470    4473    4476    4479    4482    4485    4488    4491
    4494    4497    4500    4503    4506    4509    4512    4515    4518    4521
    4524    4527    4530    4533    4536    4539    4542    4545    4548    4551
    4554    4557    4560    4563    4566    4569    4572    4575    4578    4581
    4584    4587    4590    4593    4596    4599    4602    4605    4608    4611
    4614    4617    4620    4623    4626    4629    4632    4635    4638    4641
    4644    4647    4650    4653    4656    4659    4662    4665    4668    4671
    4674    4677    4680    4683    4686    4689    4692    4695    4698    4701
    4704    4707    4710    4713    4716    4719    4722    4725    4728    4731
    4734    4737    4740    4743    4746    4749    4752    4755    4758    4761
    4764    4767    4770    4773    4776    4779    4782    4785    4788    4791
    4794    4797    4800    4803    4806    4809    4812    4815    4818    4821
    4824    4827    4830    4833    4836    4839    4842    4845    4848    4851
    4854    4857    4860    4863    4866    4869    4872    4875    4878    4881
    4884    4887    4890    4893    4896    4899    4902    4905    4908    4911
    4914    4917    4920    4923    4926    4929    4932    4935    4938    4941
    4944    4947    4950    4953    4956    4959    4962    4965    4968    4971
    4974    4977    4980    4983    4986    4989    4992    4995    4998    5001
    5004    5007    5010    5013    5016    5019    5022    5025    5028    5031
    5034    5037    5040    5043    5046    5049    5052    5055    5058    5061
    5064    5067    5070    5073    5076    5079    5082    5085    5088    5091
    5094    5097    5100    5103    5106    5109    5112    5115    5118    5121
    5124    5127    5130    5133    5136    5139    5142    5145    5148    5151
    5154    5157    5160    5163    5166    5169    5172    5175    5178    5181
    5184    5187    5190    5193    5196    5199    5202    5205    5208    5211
    5214    5217    5220    5223    5226    5229    5232    5235    5238    5241
    5244    5247    5250    5253    5256    5259    5262    5265    5268    5271
    5274    5277    5280    5283    5286    5289    5292    5295    5298    5301
    5304    5307    5310    5313    5316    5319    5322    5325    5328    5331
    5334    5337    5340    5343    5346    5349    5352    5355    5358    5361
    5364    5367    5370    5373    5376    5379    5382    5385    5388    5391
    5394    5397    5400    5403    5406    5409    5412    5415    5418    5421
    5424    5427    5430    5433    5436    5439    5442    5445    5448    5451
    5454    5457    5460    5463    5466    5469    5472    5475    5478    5481
    5484    5487    5490    5493    5496    5499    5502    5505    5508    5511
    5514    5517    5520    5523    5526    5529    5532    5535    5538    5541
    5544    5547    5550    5553    5556    5559    5562    5565    5568    5571
    5574    5577    5580    5583    5586    5589    5592    5595    5598    5601
    5604    5607    5610    5613    5616    5619    5622    5625    5628    5631
    5634    5637    5640    5643    5646    5649    5652    5655    5658    5661
    5664    5667    5670    5673    5676    5679    5682    5685    5688    5691
    5694    5697    5700    5703    5706    5709    5712    5715    5718    5721
    5724    5727    5730    5733    5736    5739    5742    5745    5748    5751
    5754    5757    5760    5763    5766    5769    5772    5775    5778    5781
    5784    5787    5790    5793    5796    5799    5802    5805    5808    5811
    5814    5817    5820    5823    5826    5829    5832    5835    5838    5841
    5844    5847    5850    5853    5856    5859    5862    5865    5868    5871
    5874    5877    5880    5883    5886    5889    5892    5895    5898    5901
    5904    5907    5910    5913    5916    5919    5922    5925    5928    5931
    5934    5937    5940    5943    5946    5949    5952    5955    5958    5961
    5964    5967    5970    5973    5976    5979    5982    5985    5988    5991
    5994    5997    6000    6003    6006    6009    6012    6015    6018    6021
    6024    6027    6030    6033    6036    6039    6042    6045    6048    6051
    6054    6057    6060    6063    6066    6069    6072    6075    6078    6081
    6084    6087    6090    6093    6096    6099    6102    6105    6108    6111
    6114    6117    6120    6123    6126    6129    6132    6135    6138    6141
    6144    6147    6150    6153    6156    6159    6162    6165    6168    6171
    6174    6177    6180    6183    6186    6189    6192    6195    6198    6201
    6204    6207    6210    6213    6216    6219    6222    6225    6228    6231
    6234    6237    6240    6243    6246    6249    6252    6255    6258    6261
    6264    6267    6270    6273    6276    6279    6282    6285    6288    6291
    6294    6297    6300    6303    6306    6309    6312    6315    6318    6321
    6324    6327    6330    6333    6336    6339    6342    6345    6348    6351
    6354    6357    6360    6363    6366    6369    6372    6375    6378    6381
    6384    6387    6390    6393    6396    6399    6402    6405    6408    6411
    6414    6417    6420    6423    6426    6429    6432    6435    6438    6441
    6444    6447    6450    6453    6456    6459    6462    6465    6468    6471
    6474    6477    6480    6483    6486    6489    6492    6495    6498    6501
    6504    6507    6510    6513    6516    6519    6522    6525    6528    6531
    6534    6537    6540    6543    6546    6549    6552    6555    6558    6561
    6564    6567    6570    6573    6576    6579    6582    6585    6588    6591
    6594    6597    6600    6603    6606    6609    6612    6615    6618    6621
    6624    6627    6630    6633    6636    6639    6642    6645    6648    6651
    6654    6657    6660    6663    6666    6669    6672    6675    6678    6681
    6684    6687    6690    6693    6696    6699    6702    6705    6708    6711
    6714    6717    6720    6723    6726    6729    6732    6735    6738    6741
    6744    6747    6750    6753    6756    6759    6762    6765    6768    6771
    6774    6777    6780    6783    6786    6789    6792    6795    6798    6801
    6804    6807    6810    6813    6816    6819    6822    6825    6828    6831
    6834    6837    6840    6843    6846    6849    6852    6855    6858    6861
    6864    6867    6870    6873    6876    6879    6882    6885    6888    6891
    6894    6897    6900    6903    6906    6909    6912    6915    6918    6921
    6924    6927    6930    6933    6936    6939    6942    6945    6948    6951
    6954    6957    6960    6963    6966    6969    6972    6975    6978    6981
    6984    6987    6990    6993    6996    6999    7002    7005    7008    7011
    7014    7017    7020    7023    7026    7029    7032    7035    7038    7041
    7044    7047    7050    7053    7056    7059    7062    7065    7068    7071
    7074    7077    7080    7083    7086    7089    7092    7095    7098    7101
    7104    7107    7110    7113    7116    7119    7122    7125    7128    7131
    7134    7137    7140    7143    7146    7149    7152    7155    7158    7161
    7164    7167    7170    7173    7176    7179    7182    7185    7188    7191
    7194    7197    7200    7203    7206    7209    7212    7215    7218    7221
    7224    7227    7230    7233    7236    7239    7242    7245    7248    7251
    7254    7257    7260    7263    7266    7269    7272    7275    7278    7281
    7284    7287    7290    7293    7296    7299    7302    7305    7308    7311
    7314    7317    7320    7323    7326    7329    7332    7335    7338    7341
    7344    7347    7350    7353    7356    7359    7362    7365    7368    7371
    7374    7377    7380    7383    7386    7389    7392    7395    7398    7401
    7404    7407    7410    7413    7416    7419    7422    7425    7428    7431
    7434    7437    7440    7443    7446    7449    7452    7455    7458    7461
    7464    7467    7470    7473    7476    7479    7482    7485    7488    7491
    7494    7497    7500    7503    7506    7509    7512    7515    7518    7521
    7524    7527    7530    7533    7536    7539    7542    7545    7548    7551
    7554    7557    7560    7563    7566    7569    7572    7575    7578    7581
    7584    7587    7590    7593    7596    7599    7602    7605    7608    7611
    7614    7617    7620    7623    7626    7629    7632    7635    7638    7641
    7644    7647    7650    7653    7656    7659    7662    7665    7668    7671
    7674    7677    7680    7683    7686    7689    7692    7695    7698    7701
    7704    7707    7710    7713    7716    7719    7722    7725    7728    7731
    7734    7737    7740    7743    7746    7749    7752    7755    7758    7761
    7764    7767    7770    7773    7776    7779    7782    7785    7788    7791
    7794    7797    7800    7803    7806    7809    7812    7815    7818    7821
    7824    7827    7830    7833    7836    7839    7842    7845    7848    7851
    7854    7857    7860    7863    7866    7869    7872    7875    7878    7881
    7884    7887    7890    7893    7896    7899    7902    7905    7908    7911
    7914    7917    7920    7923    7926    7929    7932    7935    7938    7941
    7944    7947    7950    7953    7956    7959    7962    7965    7968    7971
    7974    7977    7980    7983    7986    7989    7992    7995    7998    8001
    8004    8007    8010    8013    8016    8019    8022    8025    8028    8031
    8034    8037    8040    8043    8046    8049    8052    8055    8058    8061
    8064    8067    8070    8073    8076    8079    8082    8085    8088    8091
    8094    8097    8100    8103    8106    8109    8112    8115    8118    8121
    8124    8127    8130    8133    8136    8139    8142    8145    8148    8151
    8154    8157    8160    8163    8166    8169    8172    8175    8178    8181
    8184    8187    8190    8193    8196    8199    8202    8205    8208    8211
    8214    8217    8220    8223    8226    8229    8232    8235    8238    8241
    8244    8247    8250    8253    8256    8259    8262    8265    8268    8271
    8274    8277    8280    8283    8286    8289    8292    8295    8298    8301
    8304    8307    8310    8313    8316    8319    8322    8325    8328    8331
    8334    8337    8340    8343    8346    8349    8352    8355    8358    8361
    8364    8367    8370    8373    8376    8379    8382    8385    8388    8391
    8394    8397    8400    8403    8406    8409    8412    8415    8418    8421
    8424    8427    8430    8433    8436    8439    8442    8445    8448    8451
    8454    8457    8460    8463    8466    8469    8472    8475    8478    8481
    8484    8487    8490    8493    8496    8499    8502    8505    8508    8511
    8514    8517    8520    8523    8526    8529    8532    8535    8538    8541
    8544    8547    8550    8553    8556    8559    8562    8565    8568    8571
    8574    8577    8580    8583    8586    8589    8592    8595    8598    8601
    8604    8607    8610    8613    8616    8619    8622    8625    8628    8631
    8634    8637    8640    8643    8646    8649    8652    8655    8658    8661
    8664    8667    8670    8673    8676    8679    8682    8685    8688    8691
    8694    8697    8700    8703    8706    8709    8712    8715    8718    8721
    8724    8727    8730    8733    8736    8739    8742    8745    8748    8751
    8754    8757    8760    8763    8766    8769    8772    8775    8778    8781
    8784    8787    8790    8793    8796    8799    8802    8805    8808    8811
    8814    8817    8820    8823    8826    8829    8832    8835    8838    8841
    8844    8847    8850    8853    8856    8859    8862    8865    8868    8871
    8874    8877    8880    8883    8886    8889    8892    8895    8898    8901
    8904    8907    8910    8913    8916    8919    8922    8925    8928    8931
    8934    8937    8940    8943    8946    8949    8952    8955    8958    8961
    8964    8967    8970    8973    8976    8979    8982    8985    8988    8991
    8994    8997    9000    9003    9006    9009    9012    9015    9018    9021
    9024    9027    9030    9033    9036    9039    9042    9045    9048    9051
    9054    9057    9060    9063    9066    9069    9072    9075    9078    9081
    9084    9087    9090    9093    9096    9099    9102    9105    9108    9111
    9114    9117    9120    9123    9126    9129    9132    9135    9138    9141
    9144    9147    9150    9153    9156    9159    9162    9165    9168    9171
    9174    9177    9180    9183    9186    9189    9192    9195    9198    9201
    9204    9207    9210    9213    9216    9219    9222    9225    9228    9231
    9234    9237    9240    9243    9246    9249    9252    9255    9258    9261
    9264    9267    9270    9273    9276    9279    9282    9285    9288    9291
    9294    9297    9300    9303    9306    9309    9312    9315    9318    9321
    9324    9327    9330    9333    9336    9339    9342    9345    9348    9351
    9354    9357    9360    9363    9366    9369    9372    9375    9378    9381
    9384    9387    9390    9393    9396    9399    9402    9405    9408    9411
    9414    9417    9420    9423    9426    9429    9432    9435    9438    9441
    9444    9447    9450    9453    9456    9459    9462    9465    9468    9471
    9474    9477    9480    9483    9486    9489    9492    9495    9498    9501
    9504    9507    9510    9513    9516    9519    9522    9525    9528    9531
    9534    9537    9540    9543    9546    9549    9552    9555    9558    9561
    9564    9567    9570    9573    9576    9579    9582    9585    9588    9591
    9594    9597    9600    9603    9606    9609    9612    9615    9618    9621
    9624    9627    9630    9633    9636    9639    9642    9645    9648    9651
    9654    9657    9660    9663    9666    9669    9672    9675    9678    9681
    9684    9687    9690    9693    9696    9699    9702    9705    9708    9711
    9714    9717    9720    9723    9726    9729    9732    9735    9738    9741
    9744    9747    9750    9753    9756    9759    9762    9765    9768    9771
    9774    9777    9780    9783    9786    9789    9792    9795    9798    9801
    9804    9807    9810    9813    9816    9819    9822    9825    9828    9831
    9834    9837    9840    9843    9846    9849    9852    9855    9858    9861
    9864    9867    9870    9873    9876    9879    9882    9885    9888    9891
    9894    9897    9900    9903    9906    9909    9912    9915    9918    9921
    9924    9927    9930    9933    9936    9939    9942    9945    9948    9951
    9954    9957    9960    9963    9966    9969    9972    9975    9978    9981
    9984    9987    9990    9993    9996    9999   10002   10005   10008   10011
   10014   10017   10020   10023   10026   10029   10032   10035   10038   10041
   10044   10047   10050   10053   10056   10059   10062   10065   10068   10071
   10074   10077   10080   10083   10086   10089   10092   10095   10098   10101
   10104   10107   10110   10113   10116   10119   10122   10125   10128   10131
   10134   10137   10140   10143   10146   10149   10152   10155   10158   10161
   10164   10167   10170   10173   10176   10179   10182   10185   10188   10191
   10194   10197   10200   10203   10206   10209   10212   10215   10218   10221
   10224   10227   10230   10233   10236   10239   10242   10245   10248   10251
   10254   10257   10260   10263   10266   10269   10272   10275   10278   10281
   10284   10287   10290   10293   10296   10299   10302   10305   10308   10311
   10314   10317   10320   10323   10326   10329   10332   10335   10338   10341
   10344   10347   10350   10353   10356   10359   10362   10365   10368   10371
   10374   10377   10380   10383   10386   10389   10392   10395   10398   10401
   10404   10407   10410   10413   10416   10419   10422   10425   10428   10431
   10434   10437   10440   10443   10446   10449   10452   10455   10458   10461
   10464   10467   10470   10473   10476   10479   10482   10485   10488   10491
   10494   10497   10500   10503   10506   10509   10512   10515   10518   10521
   10524   10527   10530   10533   10536   10539   10542   10545   10548   10551
   10554   10557   10560   10563   10566   10569   10572   10575   10578   10581
   10584   10587   10590   10593   10596   10599   10602   10605   10608   10611
   10614   10617   10620   10623   10626   10629   10632   10635   10638   10641
   10644   10647   10650   10653   10656   10659   10662   10665   10668   10671
   10674   10677   10680   10683   10686   10689   10692   10695   10698   10701
   10704   10707   10710   10713   10716   10719   10722   10725   10728   10731
   10734   10737   10740   10743   10746   10749   10752   10755   10758   10761
   10764   10767   10770   10773   10776   10779   10782   10785   10788   10791
   10794   10797   10800   10803   10806   10809   10812   10815   10818   10821
   10824   10827   10830   10833   10836   10839   10842   10845   10848   10851
   10854   10857   10860   10863   10866   10869   10872   10875   10878   10881
   10884   10887   10890   10893   10896   10899   10902   10905   10908   10911
   10914   10917   10920   10923   10926   10929   10932   10935   10938   10941
   10944   10947   10950   10953   10956   10959   10962   10965   10968   10971
   10974   10977   10980   10983   10986   10989   10992   10995   10998   11001
   11004   11007   11010   11013   11016   11019   11022   11025   11028   11031
   11034   11037   11040   11043   11046   11049   11052   11055   11058   11061
   11064   11067   11070   11073   11076   11079   11082   11085   11088   11091
   11094   11097   11100   11103   11106   11109   11112   11115   11118   11121
   11124   11127   11130   11133   11136   11139   11142   11145   11148   11151
   11154   11157   11160   11163   11166   11169   11172   11175   11178   11181
   11184   11187   11190   11193   11196   11199   11202   11205   11208   11211
   11214   11217   11220   11223   11226   11229   11232   11235   11238   11241
   11244   11247   11250   11253   11256   11259   11262   11265   11268   11271
   11274   11277   11280   11283   11286   11289   11292   11295   11298   11301
   11304   11307   11310   11313   11316   11319   11322   11325   11328   11331
   11334   11337   11340   11343   11346   11349   11352   11355   11358   11361
   11364   11367   11370   11373   11376   11379   11382   11385   11388   11391
   11394   11397   11400   11403   11406   11409   11412   11415   11418   11421
   11424   11427   11430   11433   11436   11439   11442   11445   11448   11451
   11454   11457   11460   11463   11466   11469   11472   11475   11478   11481
   11484   11487   11490   11493   11496   11499   11502   11505   11508   11511
   11514   11517   11520   11523   11526   11529   11532   11535   11538   11541
   11544   11547   11550   11553   11556   11559   11562   11565   11568   11571
   11574   11577   11580   11583   11586   11589   11592   11595   11598   11601
   11604   11607   11610   11613   11616   11619   11622   11625   11628   11631
   11634   11637   11640   11643   11646   11649   11652   11655   11658   11661
   11664   11667   11670   11673   11676   11679   11682   11685   11688   11691
   11694   11697   11700   11703   11706   11709   11712   11715   11718   11721
   11724   11727   11730   11733   11736   11739   11742   11745   11748   11751
   11754   11757   11760   11763   11766   11769   11772   11775   11778   11781
   11784   11787   11790   11793   11796   11799   11802   11805   11808   11811
   11814   11817   11820   11823   11826   11829   11832   11835   11838   11841
   11844   11847   11850   11853   11856   11859   11862   11865   11868   11871
   11874   11877   11880   11883   11886   11889   11892   11895   11898   11901
   11904   11907   11910   11913   11916   11919   11922   11925   11928   11931
   11934   11937   11940   11943   11946   11949   11952   11955   11958   11961
   11964   11967   11970   11973   11976   11979   11982   11985   11988   11991
   11994   11997   12000   12003   12006   12009   12012   12015   12018   12021
   12024   12027   12030   12033   12036   12039   12042   12045   12048   12051
   12054   12057   12060   12063   12066   12069   12072   12075   12078   12081
   12084   12087   12090   12093   12096   12099   12102   12105   12108   12111
   12114   12117   12120   12123   12126   12129   12132   12135   12138   12141
   12144   12147   12150   12153   12156   12159   12162   12165   12168   12171
   12174   12177   12180   12183   12186   12189   12192   12195   12198   12201
   12204   12207   12210   12213   12216   12219   12222   12225   12228   12231
   12234   12237   12240   12243   12246   12249   12252   12255   12258   12261
   12264   12267   12270   12273   12276   12279   12282   12285   12288   12291
   12294   12297   12300   12303   12306   12309   12312   12315   12318   12321
   12324   12327   12330   12333   12336   12339   12342   12345   12348   12351
   12354   12357   12360   12363   12366   12369   12372   12375   12378   12381
   12384   12387   12390   12393   12396   12399   12402   12405   12408   12411
   12414   12417   12420   12423   12426   12429   12432   12435   12438   12441
   12444   12447   12450   12453   12456   12459   12462   12465   12468   12471
   12474   12477   12480   12483   12486   12489   12492   12495   12498   12501
   12504   12507   12510   12513   12516   12519   12522   12525   12528   12531
   12534   12537   12540   12543   12546   12549   12552   12555   12558   12561
   12564   12567   12570   12573   12576   12579   12582   12585   12588   12591
   12594   12597   12600   12603   12606   12609   12612   12615   12618   12621
   12624   12627   12630   12633   12636   12639   12642   12645   12648   12651
   12654   12657   12660   12663   12666   12669   12672   12675   12678   12681
   12684   12687   12690   12693   12696   12699   12702   12705   12708   12711
   12714   12717   12720   12723   12726   12729   12732   12735   12738   12741
   12744   12747   12750   12753   12756   12759   12762   12765   12768   12771
   12774   12777   12780   12783   12786   12789   12792   12795   12798   12801
   12804   12807   12810   12813   12816   12819   12822   12825   12828   12831
   12834   12837   12840   12843   12846   12849   12852   12855   12858   12861
   12864   12867   12870   12873   12876   12879   12882   12885   12888   12891
   12894   12897   12900   12903   12906   12909   12912   12915   12918   12921
   12924   12927   12930   12933   12936   12939   12942   12945   12948   12951
   12954   12957   12960   12963   12966   12969   12972   12975   12978   12981
   12984   12987   12990   12993   12996   12999   13002   13005   13008   13011
   13014   13017   13020   13023   13026   13029   13032   13035   13038   13041
   13044   13047   13050   13053   13056   13059   13062   13065   13068   13071
   13074   13077   13080   13083   13086   13089   13092   13095   13098   13101
   13104   13107   13110   13113   13116   13119   13122   13125   13128   13131
   13134   13137   13140   13143   13146   13149   13152   13155   13158   13161
   13164   13167   13170   13173   13176   13179   13182   13185   13188   13191
   13194   13197   13200   13203   13206   13209   13212   13215   13218   13221
   13224   13227   13230   13233   13236   13239   13242   13245   13248   13251
   13254   13257   13260   13263   13266   13269   13272   13275   13278   13281
   13284   13287   13290   13293   13296   13299   13302   13305   13308   13311
   13314   13317   13320   13323   13326   13329   13332   13335   13338   13341
   13344   13347   13350   13353   13356   13359   13362   13365   13368   13371
   13374   13377   13380   13383   13386   13389   13392   13395   13398   13401
   13404   13407   13410   13413   13416   13419   13422   13425   13428   13431
   13434   13437   13440   13443   13446   13449   13452   13455   13458   13461
   13464   13467   13470   13473   13476   13479   13482   13485   13488   13491
   13494   13497   13500   13503   13506   13509   13512   13515   13518   13521
   13524   13527   13530   13533   13536   13539   13542   13545   13548   13551
   13554   13557   13560   13563   13566   13569   13572   13575   13578   13581
   13584   13587   13590   13593   13596   13599   13602   13605   13608   13611
   13614   13617   13620   13623   13626   13629   13632   13635   13638   13641
   13644   13647   13650   13653   13656   13659   13662   13665   13668   13671
   13674   13677   13680   13683   13686   13689   13692   13695   13698   13701
   13704   13707   13710   13713   13716   13719   13722   13725   13728   13731
   13734   13737   13740   13743   13746   13749   13752   13755   13758   13761
   13764   13767   13770   13773   13776   13779   13782   13785   13788   13791
   13794   13797   13800   13803   13806   13809   13812   13815   13818   13821
   13824   13827   13830   13833   13836   13839   13842   13845   13848   13851
   13854   13857   13860   13863   13866   13869   13872   13875   13878   13881
   13884   13887   13890   13893   13896   13899   13902   13905   13908   13911
   13914   13917   13920   13923   13926   13929   13932   13935   13938   13941
   13944   13947   13950   13953   13956   13959   13962   13965   13968   13971
   13974   13977   13980   13983   13986   13989   13992   13995   13998   14001
   14004   14007   14010   14013   14016   14019   14022   14025   14028   14031
   14034   14037   14040   14043   14046   14049   14052   14055   14058   14061
   14064   14067   14070   14073   14076   14079   14082   14085   14088   14091
   14094   14097   14100   14103   14106   14109   14112   14115   14118   14121
   14124   14127   14130   14133   14136   14139   14142   14145   14148   14151
   14154   14157   14160   14163   14166   14169   14172   14175   14178   14181
   14184   14187   14190   14193   14196   14199   14202   14205   14208   14211
   14214   14217   14220   14223   14226   14229   14232   14235   14238   14241
   14244   14247   14250   14253   14256   14259   14262   14265   14268   14271
   14274   14277   14280   14283   14286   14289   14292   14295   14298   14301
   14304   14307   14310   14313   14316   14319   14322   14325   14328   14331
   14334   14337   14340   14343   14346   14349   14352   14355   14358   14361
   14364   14367   14370   14373   14376   14379   14382   14385   14388   14391
   14394   14397   14400   14403   14406   14409   14412   14415   14418   14421
   14424   14427   14430   14433   14436   14439   14442   14445   14448   14451
   14454   14457   14460   14463   14466   14469   14472   14475   14478   14481
   14484   14487   14490   14493   14496   14499   14502   14505   14508   14511
   14514   14517   14520   14523   14526   14529   14532   14535   14538   14541
   14544   14547   14550   14553   14556   14559   14562   14565   14568   14571
   14574   14577   14580   14583   14586   14589   14592   14595   14598   14601
   14604   14607   14610   14613   14616   14619   14622   14625   14628   14631
   14634   14637   14640   14643   14646   14649   14652   14655   14658   14661
   14664   14667   14670   14673   14676   14679   14682   14685   14688   14691
   14694   14697   14700   14703   14706   14709   14712   14715   14718   14721
   14724   14727   14730   14733   14736   14739   14742   14745   14748   14751
   14754   14757   14760   14763   14766   14769   14772   14775   14778   14781
   14784   14787   14790   14793   14796   14799   14802   14805   14808   14811
   14814   14817   14820   14823   14826   14829   14832   14835   14838   14841
   14844   14847   14850   14853   14856   14859   14862   14865   14868   14871
   14874   14877   14880   14883   14886   14889   14892   14895   14898   14901
   14904   14907   14910   14913   14916   14919   14922   14925   14928   14931
   14934   14937   14940   14943   14946   14949   14952   14955   14958   14961
   14964   14967   14970   14973   14976   14979   14982   14985   14988   14991
   14994   14997   15000   15003   15006   15009   15012   15015   15018   15021
   15024   15027   15030   15033   15036   15039   15042   15045   15048   15051
   15054   15057   15060   15063   15066   15069   15072   15075   15078   15081
   15084   15087   15090   15093   15096   15099   15102   15105   15108   15111
   15114   15117   15120   15123   15126   15129   15132   15135   15138   15141
   15144   15147   15150   15153   15156   15159   15162   15165   15168   15171
   15174   15177   15180   15183   15186   15189   15192   15195   15198   15201
   15204   15207   15210   15213   15216   15219   15222   15225   15228   15231
   15234   15237   15240   15243   15246   15249   15252   15255   15258   15261
   15264   15267   15270   15273   15276   15279   15282   15285   15288   15291
   15294   15297   15300   15303   15306   15309   15312   15315   15318   15321
   15324   15327   15330   15333   15336   15339   15342   15345   15348   15351
   15354   15357   15360   15363   15366   15369   15372   15375   15378   15381
   15384   15387   15390   15393   15396   15399   15402   15405   15408   15411
   15414   15417   15420   15423   15426   15429   15432   15435   15438   15441
   15444   15447   15450   15453   15456   15459   15462   15465   15468   15471
   15474   15477   15480   15483   15486   15489   15492   15495   15498   15501
   15504   15507   15510   15513   15516   15519   15522   15525   15528   15531
   15534   15537   15540   15543   15546   15549   15552   15555   15558   15561
   15564   15567   15570   15573   15576   15579   15582   15585   15588   15591
   15594   15597   15600   15603   15606   15609   15612   15615   15618   15621
   15624   15627   15630   15633   15636   15639   15642   15645   15648   15651
   15654   15657   15660   15663   15666   15669   15672   15675   15678   15681
   15684   15687   15690   15693   15696   15699   15702   15705   15708   15711
   15714   15717   15720   15723   15726   15729   15732   15735   15738   15741
   15744   15747   15750   15753   15756   15759   15762   15765   15768   15771
   15774   15777   15780   15783   15786   15789   15792   15795   15798   15801
   15804   15807   15810   15813   15816   15819   15822   15825   15828   15831
   15834   15837   15840   15843   15846   15849   15852   15855   15858   15861
   15864   15867   15870   15873   15876   15879   15882   15885   15888   15891
   15894   15897   15900   15903   15906   15909   15912   15915   15918   15921
   15924   15927   15930   15933   15936   15939   15942   15945   15948   15951
   15954   15957   15960   15963   15966   15969   15972   15975   15978   15981
   15984   15987   15990   15993   15996   15999   16002   16005   16008   16011
   16014   16017   16020   16023   16026   16029   16032   16035   16038   16041
   16044   16047   16050   16053   16056   16059   16062   16065   16068   16071
   16074   16077   16080   16083   16086   16089   16092   16095   16098   16101
   16104   16107   16110   16113   16116   16119   16122   16125   16128   16131
   16134   16137   16140   16143   16146   16149   16152   16155   16158   16161
   16164   16167   16170   16173   16176   16179   16182   16185   16188   16191
   16194   16197   16200   16203   16206   16209   16212   16215   16218   16221
   16224   16227   16230   16233   16236   16239   16242   16245   16248   16251
   16254   16257   16260   16263   16266   16269   16272   16275   16278   16281
   16284   16287   16290   16293   16296   16299   16302   16305   16308   16311
   16314   16317   16320   16323   16326   16329   16332   16335   16338   16341
   16344   16347   16350   16353   16356   16359   16362   16365   16368   16371
   16374   16377   16380   16383   16386   16389   16392   16395   16398   16401
   16404   16407   16410   16413   16416   16419   16422   16425   16428   16431
   16434   16437   16440   16443   16446   16449   16452   16455   16458   16461
   16464   16467   16470   16473   16476   16479   16482   16485   16488   16491
   16494   16497   16500   16503   16506   16509   16512   16515   16518   16521
   16524   16527   16530   16533   16536   16539   16542   16545   16548   16551
   16554   16557   16560   16563   16566   16569   16572   16575   16578   16581
   16584   16587   16590   16593   16596   16599   16602   16605   16608   16611
   16614   16617   16620   16623   16626   16629   16632   16635   16638   16641
   16644   16647   16650   16653   16656   16659   16662   16665   16668   16671
   16674   16677   16680   16683   16686   16689   16692   16695   16698   16701
   16704   16707   16710   16713   16716   16719   16722   16725   16728   16731
   16734   16737   16740   16743   16746   16749   16752   16755   16758   16761
   16764   16767   16770   16773   16776   16779   16782   16785   16788   16791
   16794   16797   16800   16803   16806   16809   16812   16815   16818   16821
   16824   16827   16830   16833   16836   16839   16842   16845   16848   16851
   16854   16857   16860   16863   16866   16869   16872   16875   16878   16881
   16884   16887   16890   16893   16896   16899   16902   16905   16908   16911
   16914   16917   16920   16923   16926   16929   16932   16935   16938   16941
   16944   16947   16950   16953   16956   16959   16962   16965   16968   16971
   16974   16977   16980   16983   16986   16989   16992   16995   16998   17001
   17004   17007   17010   17013   17016   17019   17022   17025   17028   17031
   17034   17037   17040   17043   17046   17049   17052   17055   17058   17061
   17064   17067   17070   17073   17076   17079   17082   17085   17088   17091
   17094   17097   17100   17103   17106   17109   17112   17115   17118   17121
   17124   17127   17130   17133   17136   17139   17142   17145   17148   17151
   17154   17157   17160   17163   17166   17169   17172   17175   17178   17181
   17184   17187   17190   17193   17196   17199   17202   17205   17208   17211
   17214   17217   17220   17223   17226   17229   17232   17235   17238   17241
   17244   17247   17250   17253   17256   17259   17262   17265   17268   17271
   17274   17277   17280   17283   17286   17289   17292   17295   17298   17301
   17304   17307   17310   17313   17316   17319   17322   17325   17328   17331
   17334   17337   17340   17343   17346   17349   17352   17355   17358   17361
   17364   17367   17370   17373   17376   17379   17382   17385   17388   17391
   17394   17397   17400   17403   17406   17409   17412   17415   17418   17421
   17424   17427   17430   17433   17436   17439   17442   17445   17448   17451
   17454   17457   17460   17463   17466   17469   17472   17475   17478   17481
   17484   17487   17490   17493   17496   17499   17502   17505   17508   17511
   17514   17517   17520   17523   17526   17529   17532   17535   17538   17541
   17544   17547   17550   17553   17556   17559   17562   17565   17568   17571
   17574   17577   17580   17583   17586   17589   17592   17595   17598   17601
   17604   17607   17610   17613   17616   17619   17622   17625   17628   17631
   17634   17637   17640   17643   17646   17649   17652   17655   17658   17661
   17664   17667   17670   17673   17676   17679   17682   17685   17688   17691
   17694   17697   17700   17703   17706   17709   17712   17715   17718   17721
   17724   17727   17730   17733   17736   17739   17742   17745   17748   17751
   17754   17757   17760   17763   17766   17769   17772   17775   17778   17781
   17784   17787   17790   17793   17796   17799   17802   17805   17808   17811
   17814   17817   17820   17823   17826   17829   17832   17835   17838   17841
   17844   17847   17850   17853   17856   17859   17862   17865   17868   17871
   17874   17877   17880   17883   17886   17889   17892   17895   17898   17901
   17904   17907   17910   17913   17916   17919   17922   17925   17928   17931
   17934   17937   17940   17943   17946   17949   17952   17955   17958   17961
   17964   17967   17970   17973   17976   17979   17982   17985   17988   17991
   17994   17997   18000   18003   18006   18009   18012   18015   18018   18021
   18024   18027   18030   18033   18036   18039   18042   18045   18048   18051
   18054   18057   18060   18063   18066   18069   18072   18075   18078   18081
   18084   18087   18090   18093   18096   18099   18102   18105   18108   18111
   18114   18117   18120   18123   18126   18129   18132   18135   18138   18141
   18144   18147   18150   18153   18156   18159   18162   18165   18168   18171
   18174   18177   18180   18183   18186   18189   18192   18195   18198   18201
   18204   18207   18210   18213   18216   18219   18222   18225   18228   18231
   18234   18237   18240   18243   18246   18249   18252   18255   18258   18261
   18264   18267   18270   18273   18276   18279   18282   18285   18288   18291
   18294   18297   18300   18303   18306   18309   18312   18315   18318   18321
   18324   18327   18330   18333   18336   18339   18342   18345   18348   18351
   18354   18357   18360   18363   18366   18369   18372   18375   18378   18381
   18384   18387   18390   18393   18396   18399   18402   18405   18408   18411
   18414   18417   18420   18423   18426   18429   18432   18435   18438   18441
   18444   18447   18450   18453   18456   18459   18462   18465   18468   18471
   18474   18477   18480   18483   18486   18489   18492   18495   18498   18501
   18504   18507   18510   18513   18516   18519   18522   18525   18528   18531
   18534   18537   18540   18543   18546   18549   18552   18555   18558   18561
   18564   18567   18570   18573   18576   18579   18582   18585   18588   18591
   18594   18597   18600   18603   18606   18609   18612   18615   18618   18621
   18624   18627   18630   18633   18636   18639   18642   18645   18648   18651
   18654   18657   18660   18663   18666   18669   18672   18675   18678   18681
   18684   18687   18690   18693   18696   18699   18702   18705   18708   18711
   18714   18717   18720   18723   18726   18729   18732   18735   18738   18741
   18744   18747   18750   18753   18756   18759   18762   18765   18768   18771
   18774   18777   18780   18783   18786   18789   18792   18795   18798   18801
   18804   18807   18810   18813   18816   18819   18822   18825   18828   18831
   18834   18837   18840   18843   18846   18849   18852   18855   18858   18861
   18864   18867   18870   18873   18876   18879   18882   18885   18888   18891
   18894   18897   18900   18903   18906   18909   18912   18915   18918   18921
   18924   18927   18930   18933   18936   18939   18942   18945   18948   18951
   18954   18957   18960   18963   18966   18969   18972   18975   18978   18981
   18984   18987   18990   18993   18996   18999   19002   19005   19008   19011
   19014   19017   19020   19023   19026   19029   19032   19035   19038   19041
   19044   19047   19050   19053   19056   19059   19062   19065   19068   19071
   19074   19077   19080   19083   19086   19089   19092   19095   19098   19101
   19104   19107   19110   19113   19116   19119   19122   19125   19128   19131
   19134   19137   19140   19143   19146   19149   19152   19155   19158   19161
   19164   19167   19170   19173   19176   19179   19182   19185   19188   19191
   19194   19197   19200   19203   19206   19209   19212   19215   19218   19221
   19224   19227   19230   19233   19236   19239   19242   19245   19248   19251
   19254   19257   19260   19263   19266   19269   19272   19275   19278   19281
   19284   19287   19290   19293   19296   19299   19302   19305   19308   19311
   19314   19317   19320   19323   19326   19329   19332   19335   19338   19341
   19344   19347   19350   19353   19356   19359   19362   19365   19368   19371
   19374   19377   19380   19383   19386   19389   19392   19395   19398   19401
   19404   19407   19410   19413   19416   19419   19422   19425   19428   19431
   19434   19437   19440   19443   19446   19449   19452   19455   19458   19461
   19464   19467   19470   19473   19476   19479   19482   19485   19488   19491
   19494   19497   19500   19503   19506   19509   19512   19515   19518   19521
   19524   19527   19530   19533   19536   19539   19542   19545   19548   19551
   19554   19557   19560   19563   19566   19569   19572   19575   19578   19581
   19584   19587   19590   19593   19596   19599   19602   19605   19608   19611
   19614   19617   19620   19623   19626   19629   19632   19635   19638   19641
   19644   19647   19650   19653   19656   19659   19662   19665   19668   19671
   19674   19677   19680   19683   19686   19689   19692   19695   19698   19701
   19704   19707   19710   19713   19716   19719   19722   19725   19728   19731
   19734   19737   19740   19743   19746   19749   19752   19755   19758   19761
   19764   19767   19770   19773   19776   19779   19782   19785   19788   19791
   19794   19797   19800   19803   19806   19809   19812   19815   19818   19821
   19824   19827   19830   19833   19836   19839   19842   19845   19848   19851
   19854   19857   19860   19863   19866   19869   19872   19875   19878   19881
   19884   19887   19890   19893   19896   19899   19902   19905   19908   19911
   19914   19917   19920   19923   19926   19929   19932   19935   19938   19941
   19944   19947   19950   19953   19956   19959   19962   19965   19968   19971
   19974   19977   19980   19983   19986   19989   19992   19995   19998   20001
   20004   20007   20010   20013   20016   20019   20022   20025   20028   20031
   20034   20037   20040   20043   20046   20049   20052   20055   20058   20061
   20064   20067   20070   20073   20076   20079   20082   20085   20088   20091
   20094   20097   20100   20103   20106   20109   20112   20115   20118   20121
   20124   20127   20130   20133   20136   20139   20142   20145   20148   20151
   20154   20157   20160   20163   20166   20169   20172   20175   20178   20181
   20184   20187   20190   20193   20196   20199   20202   20205   20208   20211
   20214   20217   20220   20223   20226   20229   20232   20235   20238   20241
   20244   20247   20250   20253   20256   20259   20262   20265   20268   20271
   20274   20277   20280   20283   20286   20289   20292   20295   20298   20301
   20304   20307   20310   20313   20316   20319   20322   20325   20328   20331
   20334   20337   20340   20343   20346   20349   20352   20355   20358   20361
   20364   20367   20370   20373   20376   20379   20382   20385   20388   20391
   20394   20397   20400   20403   20406   20409   20412   20415   20418   20421
   20424   20427   20430   20433   20436   20439   20442   20445   20448   20451
   20454   20457   20460   20463   20466   20469   20472   20475   20478   20481
   20484   20487   20490   20493   20496   20499   20502   20505   20508   20511
   20514   20517   20520   20523   20526   20529   20532   20535   20538   20541
   20544   20547   20550   20553   20556   20559   20562   20565   20568   20571
   20574   20577   20580   20583   20586   20589   20592   20595   20598   20601
   20604   20607   20610   20613   20616   20619   20622   20625   20628   20631
   20634   20637   20640   20643   20646   20649   20652   20655   20658   20661
   20664   20667   20670   20673   20676   20679   20682   20685   20688   20691
   20694   20697   20700   20703   20706   20709   20712   20715   20718   20721
   20724   20727   20730   20733   20736   20739   20742   20745   20748   20751
   20754   20757   20760   20763   20766   20769   20772   20775   20778   20781
   20784   20787   20790   20793   20796   20799   20802   20805   20808   20811
   20814   20817   20820   20823   20826   20829   20832   20835   20838   20841
   20844   20847   20850   20853   20856   20859   20862   20865   20868   20871
   20874   20877   20880   20883   20886   20889   20892   20895   20898   20901
   20904   20907   20910   20913   20916   20919   20922   20925   20928   20931
   20934   20937   20940   20943   20946   20949   20952   20955   20958   20961
   20964   20967   20970   20973   20976   20979   20982   20985   20988   20991
   20994   20997   21000   21003   21006   21009   21012   21015   21018   21021
   21024   21027   21030   21033   21036   21039   21042   21045   21048   21051
   21054   21057   21060   21063   21066   21069   21072   21075   21078   21081
   21084   21087   21090   21093   21096   21099   21102   21105   21108   21111
   21114   21117   21120   21123   21126   21129   21132   21135   21138   21141
   21144   21147   21150   21153   21156   21159   21162   21165   21168   21171
   21174   21177   21180   21183   21186   21189   21192   21195   21198   21201
   21204   21207   21210   21213   21216   21219   21222   21225   21228   21231
   21234   21237   21240   21243   21246   21249   21252   21255   21258   21261
   21264   21267   21270   21273   21276   21279   21282   21285   21288   21291
   21294   21297   21300   21303   21306   21309   21312   21315   21318   21321
   21324   21327   21330   21333   21336   21339   21342   21345   21348   21351
   21354   21357   21360   21363   21366   21369   21372   21375   21378   21381
   21384   21387   21390   21393   21396   21399   21402   21405   21408   21411
   21414   21417   21420   21423   21426   21429   21432   21435   21438   21441
   21444   21447   21450   21453   21456   21459   21462   21465   21468   21471
   21474   21477   21480   21483   21486   21489   21492   21495   21498   21501
   21504   21507   21510   21513   21516   21519   21522   21525   21528   21531
   21534   21537   21540   21543   21546   21549   21552   21555   21558   21561
   21564   21567   21570   21573   21576   21579   21582   21585   21588   21591
   21594   21597   21600   21603   21606   21609   21612   21615   21618   21621
   21624   21627   21630   21633   21636   21639   21642   21645   21648   21651
   21654   21657   21660   21663   21666   21669   21672   21675   21678   21681
   21684   21687   21690   21693   21696   21699   21702   21705   21708   21711
   21714   21717   21720   21723   21726   21729   21732   21735   21738   21741
   21744   21747   21750   21753   21756   21759   21762   21765   21768   21771
   21774   21777   21780   21783   21786   21789   21792   21795   21798   21801
   21804   21807   21810   21813   21816   21819   21822   21825   21828   21831
   21834   21837   21840   21843   21846   21849   21852   21855   21858   21861
   21864   21867   21870   21873   21876   21879   21882   21885   21888   21891
   21894   21897   21900   21903   21906   21909   21912   21915   21918   21921
   21924   21927   21930   21933   21936   21939   21942   21945   21948   21951
   21954   21957   21960   21963   21966   21969   21972   21975   21978   21981
   21984   21987   21990   21993   21996   21999   22002   22005   22008   22011
   22014   22017   22020   22023   22026   22029   22032   22035   22038   22041
   22044   22047   22050   22053   22056   22059   22062   22065   22068   22071
   22074   22077   22080   22083   22086   22089   22092   22095   22098   22101
   22104   22107   22110   22113   22116   22119   22122   22125   22128   22131
   22134   22137   22140   22143   22146   22149   22152   22155   22158   22161
   22164   22167   22170   22173   22176   22179   22182   22185   22188   22191
   22194   22197   22200   22203   22206   22209   22212   22215   22218   22221
   22224   22227   22230   22233   22236   22239   22242   22245   22248   22251
   22254   22257   22260   22263   22266   22269   22272   22275   22278   22281
   22284   22287   22290   22293   22296   22299   22302   22305   22308   22311
   22314   22317   22320   22323   22326   22329   22332   22335   22338   22341
   22344   22347   22350   22353   22356   22359   22362   22365   22368   22371
   22374   22377   22380   22383   22386   22389   22392   22395   22398   22401
   22404   22407   22410   22413   22416   22419   22422   22425   22428   22431
   22434   22437   22440   22443   22446   22449   22452   22455   22458   22461
   22464   22467   22470   22473   22476   22479   22482   22485   22488   22491
   22494   22497   22500   22503   22506   22509   22512   22515   22518   22521
   22524   22527   22530   22533   22536   22539   22542   22545   22548   22551
   22554   22557   22560   22563   22566   22569   22572   22575   22578   22581
   22584   22587   22590   22593   22596   22599   22602   22605   22608   22611
   22614   22617   22620   22623   22626   22629   22632   22635   22638   22641
   22644   22647   22650   22653   22656   22659   22662   22665   22668   22671
   22674   22677   22680   22683   22686   22689   22692   22695   22698   22701
   22704   22707   22710   22713   22716   22719   22722   22725   22728   22731
   22734   22737   22740   22743   22746   22749   22752   22755   22758   22761
   22764   22767   22770   22773   22776   22779   22782   22785   22788   22791
   22794   22797   22800   22803   22806   22809   22812   22815   22818   22821
   22824   22827   22830   22833   22836   22839   22842   22845   22848   22851
   22854   22857   22860   22863   22866   22869   22872   22875   22878   22881
   22884   22887   22890   22893   22896   22899   22902   22905   22908   22911
   22914   22917   22920   22923   22926   22929   22932   22935   22938   22941
   22944   22947   22950   22953   22956   22959   22962   22965   22968   22971
   22974   22977   22980   22983   22986   22989   22992   22995   22998   23001
   23004   23007   23010   23013   23016   23019   23022   23025   23028   23031
   23034   23037   23040   23043   23046   23049   23052   23055   23058   23061
   23064   23067   23070   23073   23076   23079   23082   23085   23088   23091
   23094   23097   23100   23103   23106   23109   23112   23115   23118   23121
   23124   23127   23130   23133   23136   23139   23142   23145   23148   23151
   23154   23157   23160   23163   23166   23169   23172   23175   23178   23181
   23184   23187   23190   23193   23196   23199   23202   23205   23208   23211
   23214   23217   23220   23223   23226   23229   23232   23235   23238   23241
   23244   23247   23250   23253   23256   23259   23262   23265   23268   23271
   23274   23277   23280   23283   23286   23289   23292   23295   23298   23301
   23304   23307   23310   23313   23316   23319   23322   23325   23328   23331
   23334   23337   23340   23343   23346   23349   23352   23355   23358   23361
   23364   23367   23370   23373   23376   23379   23382   23385   23388   23391
   23394   23397   23400   23403   23406   23409   23412   23415   23418   23421
   23424   23427   23430   23433   23436   23439   23442   23445   23448   23451
   23454   23457   23460   23463   23466   23469   23472   23475   23478   23481
   23484   23487   23490   23493   23496   23499   23502   23505   23508   23511
   23514   23517   23520   23523   23526   23529   23532   23535   23538   23541
   23544   23547   23550   23553   23556   23559   23562   23565   23568   23571
   23574   23577   23580   23583   23586   23589   23592   23595   23598   23601
   23604   23607   23610   23613   23616   23619   23622   23625   23628   23631
   23634   23637   23640   23643   23646   23649   23652   23655   23658   23661
   23664   23667   23670   23673   23676   23679   23682   23685   23688   23691
   23694   23697   23700   23703   23706   23709   23712   23715   23718   23721
   23724   23727   23730   23733   23736   23739   23742   23745   23748   23751
   23754   23757   23760   23763   23766   23769   23772   23775   23778   23781
   23784   23787   23790   23793   23796   23799   23802   23805   23808   23811
   23814   23817   23820   23823   23826   23829   23832   23835   23838   23841
   23844   23847   23850   23853   23856   23859   23862   23865   23868   23871
   23874   23877   23880   23883   23886   23889   23892   23895   23898   23901
   23904   23907   23910   23913   23916   23919   23922   23925   23928   23931
   23934   23937   23940   23943   23946   23949   23952   23955   23958   23961
   23964   23967   23970   23973   23976   23979   23982   23985   23988   23991
   23994   23997   24000   24003   24006   24009   24012   24015   24018   24021
   24024   24027   24030   24033   24036   24039   24042   24045   24048   24051
   24054   24057   24060   24063   24066   24069   24072   24075   24078   24081
   24084   24087   24090   24093   24096   24099   24102   24105   24108   24111
   24114   24117   24120   24123   24126   24129   24132   24135   24138   24141
   24144   24147   24150   24153   24156   24159   24162   24165   24168   24171
   24174   24177   24180   24183   24186   24189   24192   24195   24198   24201
   24204   24207   24210   24213   24216   24219   24222   24225   24228   24231
   24234   24237   24240   24243   24246   24249   24252   24255   24258   24261
   24264   24267   24270   24273   24276   24279   24282   24285   24288   24291
   24294   24297   24300   24303   24306   24309   24312   24315   24318   24321
   24324   24327   24330   24333   24336   24339   24342   24345   24348   24351
   24354   24357   24360   24363   24366   24369   24372   24375   24378   24381
   24384   24387   24390   24393   24396   24399   24402   24405   24408   24411
   24414   24417   24420   24423   24426   24429   24432   24435   24438   24441
   24444   24447   24450   24453   24456   24459   24462   24465   24468   24471
   24474   24477   24480   24483   24486   24489   24492   24495   24498   24501
   24504   24507   24510   24513   24516   24519   24522   24525   24528   24531
   24534   24537   24540   24543   24546   24549   24552   24555   24558   24561
   24564   24567   24570   24573   24576   24579   24582   24585   24588   24591
   24594   24597   24600   24603   24606   24609   24612   24615   24618   24621
   24624   24627   24630   24633   24636   24639   24642   24645   24648   24651
   24654   24657   24660   24663   24666   24669   24672   24675   24678   24681
   24684   24687   24690   24693   24696   24699   24702   24705   24708   24711
   24714   24717   24720   24723   24726   24729   24732   24735   24738   24741
   24744   24747   24750   24753   24756   24759   24762   24765   24768   24771
   24774   24777   24780   24783   24786   24789   24792   24795   24798   24801
   24804   24807   24810   24813   24816   24819   24822   24825   24828   24831
   24834   24837   24840   24843   24846   24849   24852   24855   24858   24861
   24864   24867   24870   24873   24876   24879   24882   24885   24888   24891
   24894   24897   24900   24903   24906   24909   24912   24915   24918   24921
   24924   24927   24930   24933   24936   24939   24942   24945   24948   24951
   24954   24957   24960   24963   24966   24969   24972   24975   24978   24981
   24984   24987   24990   24993   24996   24999   25002   25005   25008   25011
   25014   25017   25020   25023   25026   25029   25032   25035   25038   25041
   25044   25047   25050   25053   25056   25059   25062   25065   25068   25071
   25074   25077   25080   25083   25086   25089   25092   25095   25098   25101
   25104   25107   25110   25113   25116   25119   25122   25125   25128   25131
   25134   25137   25140   25143   25146   25149   25152   25155   25158   25161
   25164   25167   25170   25173   25176   25179   25182   25185   25188   25191
   25194   25197   25200   25203   25206   25209   25212   25215   25218   25221
   25224   25227   25230   25233   25236   25239   25242   25245   25248   25251
   25254   25257   25260   25263   25266   25269   25272   25275   25278   25281
   25284   25287   25290   25293   25296   25299   25302   25305   25308   25311
   25314   25317   25320   25323   25326   25329   25332   25335   25338   25341
   25344   25347   25350   25353   25356   25359   25362   25365   25368   25371
   25374   25377   25380   25383   25386   25389   25392   25395   25398   25401
   25404   25407   25410   25413   25416   25419   25422   25425   25428   25431
   25434   25437   25440   25443   25446   25449   25452   25455   25458   25461
   25464   25467   25470   25473   25476   25479   25482   25485   25488   25491
   25494   25497   25500   25503   25506   25509   25512   25515   25518   25521
   25524   25527   25530   25533   25536   25539   25542   25545   25548   25551
   25554   25557   25560   25563   25566   25569   25572   25575   25578   25581
   25584   25587   25590   25593   25596   25599   25602   25605   25608   25611
   25614   25617   25620   25623   25626   25629   25632   25635   25638   25641
   25644   25647   25650   25653   25656   25659   25662   25665   25668   25671
   25674   25677   25680   25683   25686   25689   25692   25695   25698   25701
   25704   25707   25710   25713   25716   25719   25722   25725   25728   25731
   25734   25737   25740   25743   25746   25749   25752   25755   25758   25761
   25764   25767   25770   25773   25776   25779   25782   25785   25788   25791
   25794   25797   25800   25803   25806   25809   25812   25815   25818   25821
   25824   25827   25830   25833   25836   25839   25842   25845   25848   25851
   25854   25857   25860   25863   25866   25869   25872   25875   25878   25881
   25884   25887   25890   25893   25896   25899   25902   25905   25908   25911
   25914   25917   25920   25923   25926   25929   25932   25935   25938   25941
   25944   25947   25950   25953   25956   25959   25962   25965   25968   25971
   25974   25977   25980   25983   25986   25989   25992   25995   25998   26001
   26004   26007   26010   26013   26016   26019   26022   26025   26028   26031
   26034   26037   26040   26043   26046   26049   26052   26055   26058   26061
   26064   26067   26070   26073   26076   26079   26082   26085   26088   26091
   26094   26097   26100   26103   26106   26109   26112   26115   26118   26121
   26124   26127   26130   26133   26136   26139   26142   26145   26148   26151
   26154   26157   26160   26163   26166   26169   26172   26175   26178   26181
   26184   26187   26190   26193   26196   26199   26202   26205   26208   26211
   26214   26217   26220   26223   26226   26229   26232   26235   26238   26241
   26244   26247   26250   26253   26256   26259   26262   26265   26268   26271
   26274   26277   26280   26283   26286   26289   26292   26295   26298   26301
   26304   26307   26310   26313   26316   26319   26322   26325   26328   26331
   26334   26337   26340   26343   26346   26349   26352   26355   26358   26361
   26364   26367   26370   26373   26376   26379   26382   26385   26388   26391
   26394   26397   26400   26403   26406   26409   26412   26415   26418   26421
   26424   26427   26430   26433   26436   26439   26442   26445   26448   26451
   26454   26457   26460   26463   26466   26469   26472   26475   26478   26481
   26484   26487   26490   26493   26496   26499   26502   26505   26508   26511
   26514   26517   26520   26523   26526   26529   26532   26535   26538   26541
   26544   26547   26550   26553   26556   26559   26562   26565   26568   26571
   26574   26577   26580   26583   26586   26589   26592   26595   26598   26601
   26604   26607   26610   26613   26616   26619   26622   26625   26628   26631
   26634   26637   26640   26643   26646   26649   26652   26655   26658   26661
   26664   26667   26670   26673   26676   26679   26682   26685   26688   26691
   26694   26697   26700   26703   26706   26709   26712   26715   26718   26721
   26724   26727   26730   26733   26736   26739   26742   26745   26748   26751
   26754   26757   26760   26763   26766   26769   26772   26775   26778   26781
   26784   26787   26790   26793   26796   26799   26802   26805   26808   26811
   26814   26817   26820   26823   26826   26829   26832   26835   26838   26841
   26844   26847   26850   26853   26856   26859   26862   26865   26868   26871
   26874   26877   26880   26883   26886   26889   26892   26895   26898   26901
   26904   26907   26910   26913   26916   26919   26922   26925   26928   26931
   26934   26937   26940   26943   26946   26949   26952   26955   26958   26961
   26964   26967   26970   26973   26976   26979   26982   26985   26988   26991
   26994   26997   27000   27003   27006   27009   27012   27015   27018   27021
   27024   27027   27030   27033   27036   27039   27042   27045   27048   27051
   27054   27057   27060   27063   27066   27069   27072   27075   27078   27081
   27084   27087   27090   27093   27096   27099   27102   27105   27108   27111
   27114   27117   27120   27123   27126   27129   27132   27135   27138   27141
   27144   27147   27150   27153   27156   27159   27162   27165   27168   27171
   27174   27177   27180   27183   27186   27189   27192   27195   27198   27201
   27204   27207   27210   27213   27216   27219   27222   27225   27228   27231
   27234   27237   27240   27243   27246   27249   27252   27255   27258   27261
   27264   27267   27270   27273   27276   27279   27282   27285   27288   27291
   27294   27297   27300   27303   27306   27309   27312   27315   27318   27321
   27324   27327   27330   27333   27336   27339   27342   27345   27348   27351
   27354   27357   27360   27363   27366   27369   27372   27375   27378   27381
   27384   27387   27390   27393   27396   27399   27402   27405   27408   27411
   27414   27417   27420   27423   27426   27429   27432   27435   27438   27441
   27444   27447   27450   27453   27456   27459   27462   27465   27468   27471
   27474   27477   27480   27483   27486   27489   27492   27495   27498   27501
   27504   27507   27510   27513   27516   27519   27522   27525   27528   27531
   27534   27537   27540   27543   27546   27549   27552   27555   27558   27561
   27564   27567   27570   27573   27576   27579   27582   27585   27588   27591
   27594   27597   27600   27603   27606   27609   27612   27615   27618   27621
   27624   27627   27630   27633   27636   27639   27642   27645   27648   27651
   27654   27657   27660   27663   27666   27669   27672   27675   27678   27681
   27684   27687   27690   27693   27696   27699   27702   27705   27708   27711
   27714   27717   27720   27723   27726   27729   27732   27735   27738   27741
   27744   27747   27750   27753   27756   27759   27762   27765   27768   27771
   27774   27777   27780   27783   27786   27789   27792   27795   27798   27801
   27804   27807   27810   27813   27816   27819   27822   27825   27828   27831
   27834   27837   27840   27843   27846   27849   27852   27855   27858   27861
   27864   27867   27870   27873   27876   27879   27882   27885   27888   27891
   27894   27897   27900   27903   27906   27909   27912   27915   27918   27921
   27924   27927   27930   27933   27936   27939   27942   27945   27948   27951
   27954   27957   27960   27963   27966   27969   27972   27975   27978   27981
   27984   27987   27990   27993   27996   27999   28002   28005   28008   28011
   28014   28017   28020   28023   28026   28029   28032   28035   28038   28041
   28044   28047   28050   28053   28056   28059   28062   28065   28068   28071
   28074   28077   28080   28083   28086   28089   28092   28095   28098   28101
   28104   28107   28110   28113   28116   28119   28122   28125   28128   28131
   28134   28137   28140   28143   28146   28149   28152   28155   28158   28161
   28164   28167   28170   28173   28176   28179   28182   28185   28188   28191
   28194   28197   28200   28203   28206   28209   28212   28215   28218   28221
   28224   28227   28230   28233   28236   28239   28242   28245   28248   28251
   28254   28257   28260   28263   28266   28269   28272   28275   28278   28281
   28284   28287   28290   28293   28296   28299   28302   28305   28308   28311
   28314   28317   28320   28323   28326   28329   28332   28335   28338   28341
   28344   28347   28350   28353   28356   28359   28362   28365   28368   28371
   28374   28377   28380   28383   28386   28389   28392   28395   28398   28401
   28404   28407   28410   28413   28416   28419   28422   28425   28428   28431
   28434   28437   28440   28443   28446   28449   28452   28455   28458   28461
   28464   28467   28470   28473   28476   28479   28482   28485   28488   28491
   28494   28497   28500   28503   28506   28509   28512   28515   28518   28521
   28524   28527   28530   28533   28536   28539   28542   28545   28548   28551
   28554   28557   28560   28563   28566   28569   28572   28575   28578   28581
   28584   28587   28590   28593   28596   28599   28602   28605   28608   28611
   28614   28617   28620   28623   28626   28629   28632   28635   28638   28641
   28644   28647   28650   28653   28656   28659   28662   28665   28668   28671
   28674   28677   28680   28683   28686   28689   28692   28695   28698   28701
   28704   28707   28710   28713   28716   28719   28722   28725   28728   28731
   28734   28737   28740   28743   28746   28749   28752   28755   28758   28761
   28764   28767   28770   28773   28776   28779   28782   28785   28788   28791
   28794   28797   28800   28803   28806   28809   28812   28815   28818   28821
   28824   28827   28830   28833   28836   28839   28842   28845   28848   28851
   28854   28857   28860   28863   28866   28869   28872   28875   28878   28881
   28884   28887   28890   28893   28896   28899   28902   28905   28908   28911
   28914   28917   28920   28923   28926   28929   28932   28935   28938   28941
   28944   28947   28950   28953   28956   28959   28962   28965   28968   28971
   28974   28977   28980   28983   28986   28989   28992   28995   28998   29001
   29004   29007   29010   29013   29016   29019   29022   29025   29028   29031
   29034   29037   29040   29043   29046   29049   29052   29055   29058   29061
   29064   29067   29070   29073   29076   29079   29082   29085   29088   29091
   29094   29097   29100   29103   29106   29109   29112   29115   29118   29121
   29124   29127   29130   29133   29136   29139   29142   29145   29148   29151
   29154   29157   29160   29163   29166   29169   29172   29175   29178   29181
   29184   29187   29190   29193   29196   29199   29202   29205   29208   29211
   29214   29217   29220   29223   29226   29229   29232   29235   29238   29241
   29244   29247   29250   29253   29256   29259   29262   29265   29268   29271
   29274   29277   29280   29283   29286   29289   29292   29295   29298   29301
   29304   29307   29310   29313   29316   29319   29322   29325   29328   29331
   29334   29337   29340   29343   29346   29349   29352   29355   29358   29361
   29364   29367   29370   29373   29376   29379   29382   29385   29388   29391
   29394   29397   29400   29403   29406   29409   29412   29415   29418   29421
   29424   29427   29430   29433   29436   29439   29442   29445   29448   29451
   29454   29457   29460   29463   29466   29469   29472   29475   29478   29481
   29484   29487   29490   29493   29496   29499   29502   29505   29508   29511
   29514   29517   29520   29523   29526   29529   29532   29535   29538   29541
   29544   29547   29550   29553   29556   29559   29562   29565   29568   29571
   29574   29577   29580   29583   29586   29589   29592   29595   29598   29601
   29604   29607   29610   29613   29616   29619   29622   29625   29628   29631
   29634   29637   29640   29643   29646   29649   29652   29655   29658   29661
   29664   29667   29670   29673   29676   29679   29682   29685   29688   29691
   29694   29697   29700   29703   29706   29709   29712   29715   29718   29721
   29724   29727   29730   29733   29736   29739   29742   29745   29748   29751
   29754   29757   29760   29763   29766   29769   29772   29775   29778   29781
   29784   29787   29790   29793   29796   29799   29802   29805   29808   29811
   29814   29817   29820   29823   29826   29829   29832   29835   29838   29841
   29844   29847   29850   29853   29856   29859   29862   29865   29868   29871
   29874   29877   29880   29883   29886   29889   29892   29895   29898   29901
   29904   29907   29910   29913   29916   29919   29922   29925   29928   29931
   29934   29937   29940   29943   29946   29949   29952   29955   29958   29961
   29964   29967   29970   29973   29976   29979   29982   29985   29988   29991
   29994   29997   30000   30003   30006   30009   30012   30015   30018   30021
   30024   30027   30030   30033   30036   30039   30042   30045   30048   30051
   30054   30057   30060   30063   30066   30069   30072   30075   30078   30081
   30084   30087   30090   30093   30096   30099   30102   30105   30108   30111
   30114   30117   30120   30123   30126   30129   30132   30135   30138   30141
   30144   30147   30150   30153   30156   30159   30162   30165   30168   30171
   30174   30177   30180   30183   30186   30189   30192   30195   30198   30201
   30204   30207   30210   30213   30216   30219   30222   30225   30228   30231
   30234   30237   30240   30243   30246   30249   30252   30255   30258   30261
   30264   30267   30270   30273   30276   30279   30282   30285   30288   30291
   30294   30297   30300   30303   30306   30309   30312   30315   30318   30321
   30324   30327   30330   30333   30336   30339   30342   30345   30348   30351
   30354   30357   30360   30363   30366   30369   30372   30375   30378   30381
   30384   30387   30390   30393   30396   30399   30402   30405   30408   30411
   30414   30417   30420   30423   30426   30429   30432   30435   30438   30441
   30444   30447   30450   30453   30456   30459   30462   30465   30468   30471
   30474   30477   30480   30483   30486   30489   30492   30495   30498   30501
   30504   30507   30510   30513   30516   30519   30522   30525   30528   30531
   30534   30537   30540   30543   30546   30549   30552   30555   30558   30561
   30564   30567   30570   30573   30576   30579   30582   30585   30588   30591
   30594   30597   30600   30603   30606   30609   30612   30615   30618   30621
   30624   30627   30630   30633   30636   30639   30642   30645   30648   30651
   30654   30657   30660   30663   30666   30669   30672   30675   30678   30681
   30684   30687   30690   30693   30696   30699   30702   30705   30708   30711
   30714   30717   30720   30723   30726   30729   30732   30735   30738   30741
   30744   30747   30750   30753   30756   30759   30762   30765   30768   30771
   30774   30777   30780   30783   30786   30789   30792   30795   30798   30801
   30804   30807   30810   30813   30816   30819   30822   30825   30828   30831
   30834   30837   30840   30843   30846   30849   30852   30855   30858   30861
   30864   30867   30870   30873   30876   30879   30882   30885   30888   30891
   30894   30897   30900   30903   30906   30909   30912   30915   30918   30921
   30924   30927   30930   30933   30936   30939   30942   30945   30948   30951
   30954   30957   30960   30963   30966   30969   30972   30975   30978   30981
   30984   30987   30990   30993   30996   30999   31002   31005   31008   31011
   31014   31017   31020   31023   31026   31029   31032   31035   31038   31041
   31044   31047   31050   31053   31056   31059   31062   31065   31068   31071
   31074   31077   31080   31083   31086   31089   31092   31095   31098   31101
   31104   31107   31110   31113   31116   31119   31122   31125   31128   31131
   31134   31137   31140   31143   31146   31149   31152   31155   31158   31161
   31164   31167   31170   31173   31176   31179   31182   31185   31188   31191
   31194   31197   31200   31203   31206   31209   31212   31215   31218   31221
   31224   31227   31230   31233   31236   31239   31242   31245   31248   31251
   31254   31257   31260   31263   31266   31269   31272   31275   31278   31281
   31284   31287   31290   31293   31296   31299   31302   31305   31308   31311
   31314   31317   31320   31323   31326   31329   31332   31335   31338   31341
   31344   31347   31350   31353   31356   31359   31362   31365   31368   31371
   31374   31377   31380   31383   31386   31389   31392   31395   31398   31401
   31404   31407   31410   31413   31416   31419   31422   31425   31428   31431
   31434   31437   31440   31443   31446   31449   31452   31455   31458   31461
   31464   31467   31470   31473   31476   31479   31482   31485   31488   31491
   31494   31497   31500   31503   31506   31509   31512   31515   31518   31521
   31524   31527   31530   31533   31536   31539   31542   31545   31548   31551
   31554   31557   31560   31563   31566   31569   31572   31575   31578   31581
   31584   31587   31590   31593   31596   31599   31602   31605   31608   31611
   31614   31617   31620   31623   31626   31629   31632   31635   31638   31641
   31644   31647   31650   31653   31656   31659   31662   31665   31668   31671
   31674   31677   31680   31683   31686   31689   31692   31695   31698   31701
   31704   31707   31710   31713   31716   31719   31722   31725   31728   31731
   31734   31737   31740   31743   31746   31749   31752   31755   31758   31761
   31764   31767   31770   31773   31776   31779   31782   31785   31788   31791
   31794   31797   31800   31803   31806   31809   31812   31815   31818   31821
   31824   31827   31830   31833   31836   31839   31842   31845   31848   31851
   31854   31857   31860   31863   31866   31869   31872   31875   31878   31881
   31884   31887   31890   31893   31896   31899   31902   31905   31908   31911
   31914   31917   31920   31923   31926   31929   31932   31935   31938   31941
   31944   31947   31950   31953   31956   31959   31962   31965   31968   31971
   31974   31977   31980   31983   31986   31989   31992   31995   31998   32001
   32004   32007   32010   32013   32016   32019   32022   32025   32028   32031
   32034   32037   32040   32043   32046   32049   32052   32055   32058   32061
   32064   32067   32070   32073   32076   32079   32082   32085   32088   32091
   32094   32097   32100   32103   32106   32109   32112   32115   32118   32121
   32124   32127   32130   32133   32136   32139   32142   32145   32148   32151
   32154   32157   32160   32163   32166   32169   32172   32175   32178   32181
   32184   32187   32190   32193   32196   32199   32202   32205   32208   32211
   32214   32217   32220   32223   32226   32229   32232   32235   32238   32241
   32244   32247   32250   32253   32256   32259   32262   32265   32268   32271
   32274   32277   32280   32283   32286   32289   32292   32295   32298   32301
   32304   32307   32310   32313   32316   32319   32322   32325   32328   32331
   32334   32337   32340   32343   32346   32349   32352   32355   32358   32361
   32364   32367   32370   32373   32376   32379   32382   32385   32388   32391
   32394   32397   32400   32403   32406   32409   32412   32415   32418   32421
   32424   32427   32430   32433   32436   32439   32442   32445   32448   32451
   32454   32457   32460   32463   32466   32469   32472   32475   32478   32481
   32484   32487   32490   32493   32496   32499   32502   32505   32508   32511
   32514   32517   32520   32523   32526   32529   32532   32535   32538   32541
   32544   32547   32550   32553   32556   32559   32562   32565   32568   32571
   32574   32577   32580   32583   32586   32589   32592   32595   32598   32601
   32604   32607   32610   32613   32616   32619   32622   32625   32628   32631
   32634   32637   32640   32643   32646   32649   32652   32655   32658   32661
   32664   32667   32670   32673   32676   32679   32682   32685   32688   32691
   32694   32697   32700   32703   32706   32709   32712   32715   32718   32721
   32724   32727   32730   32733   32736   32739   32742   32745   32748   32751
   32754   32757   32760   32763   32766   32769   32772   32775   32778   32781
   32784   32787   32790   32793   32796   32799   32802   32805   32808   32811
   32814   32817   32820   32823   32826   32829   32832   32835   32838   32841
   32844   32847   32850   32853   32856   32859   32862   32865   32868   32871
   32874   32877   32880   32883   32886   32889   32892   32895   32898   32901
   32904   32907   32910   32913   32916   32919   32922   32925   32928   32931
   32934   32937   32940   32943   32946   32949   32952   32955   32958   32961
   32964   32967   32970   32973   32976   32979   32982   32985   32988   32991
   32994   32997   33000   33003   33006   33009   33012   33015   33018   33021
   33024   33027   33030   33033   33036   33039   33042   33045   33048   33051
   33054   33057   33060   33063   33066   33069   33072   33075   33078   33081
   33084   33087   33090   33093   33096   33099   33102   33105   33108   33111
   33114   33117   33120   33123   33126   33129   33132   33135   33138   33141
   33144   33147   33150   33153   33156   33159   33162   33165   33168   33171
   33174   33177   33180   33183   33186   33189   33192   33195   33198   33201
   33204   33207   33210   33213   33216   33219   33222   33225   33228   33231
   33234   33237   33240   33243   33246   33249   33252   33255   33258   33261
   33264   33267   33270   33273   33276   33279   33282   33285   33288   33291
   33294   33297   33300   33303   33306   33309   33312   33315   33318   33321
   33324   33327   33330   33333   33336   33339   33342   33345   33348   33351
   33354   33357   33360   33363   33366   33369   33372   33375   33378   33381
   33384   33387   33390   33393   33396   33399   33402   33405   33408   33411
   33414   33417   33420   33423   33426   33429   33432   33435   33438   33441
   33444   33447   33450   33453   33456   33459   33462   33465   33468   33471
   33474   33477   33480   33483   33486   33489   33492   33495   33498   33501
   33504   33507   33510   33513   33516   33519   33522   33525   33528   33531
   33534   33537   33540   33543   33546   33549   33552   33555   33558   33561
   33564   33567   33570   33573   33576   33579   33582   33585   33588   33591
   33594   33597   33600   33603   33606   33609   33612   33615   33618   33621
   33624   33627   33630   33633   33636   33639   33642   33645   33648   33651
   33654   33657   33660   33663   33666   33669   33672   33675   33678   33681
   33684   33687   33690   33693   33696   33699   33702   33705   33708   33711
   33714   33717   33720   33723   33726   33729   33732   33735   33738   33741
   33744   33747   33750   33753   33756   33759   33762   33765   33768   33771
   33774   33777   33780   33783   33786   33789   33792   33795   33798   33801
   33804   33807   33810   33813   33816   33819   33822   33825   33828   33831
   33834   33837   33840   33843   33846   33849   33852   33855   33858   33861
   33864   33867   33870   33873   33876   33879   33882   33885   33888   33891
   33894   33897   33900   33903   33906   33909   33912   33915   33918   33921
   33924   33927   33930   33933   33936   33939   33942   33945   33948   33951
   33954   33957   33960   33963   33966   33969   33972   33975   33978   33981
   33984   33987   33990   33993   33996   33999   34002   34005   34008   34011
   34014   34017   34020   34023   34026   34029   34032   34035   34038   34041
   34044   34047   34050   34053   34056   34059   34062   34065   34068   34071
   34074   34077   34080   34083   34086   34089   34092   34095   34098   34101
   34104   34107   34110   34113   34116   34119   34122   34125   34128   34131
   34134   34137   34140   34143   34146   34149   34152   34155   34158   34161
   34164   34167   34170   34173   34176   34179   34182   34185   34188   34191
   34194   34197   34200   34203   34206   34209   34212   34215   34218   34221
   34224   34227   34230   34233   34236   34239   34242   34245   34248   34251
   34254   34257   34260   34263   34266   34269   34272   34275   34278   34281
   34284   34287   34290   34293   34296   34299   34302   34305   34308   34311
   34314   34317   34320   34323   34326   34329   34332   34335   34338   34341
   34344   34347   34350   34353   34356   34359   34362   34365   34368   34371
   34374   34377   34380   34383   34386   34389   34392   34395   34398   34401
   34404   34407   34410   34413   34416   34419   34422   34425   34428   34431
   34434   34437   34440   34443   34446   34449   34452   34455   34458   34461
   34464   34467   34470   34473   34476   34479   34482   34485   34488   34491
   34494   34497   34500   34503   34506   34509   34512   34515   34518   34521
   34524   34527   34530   34533   34536   34539   34542   34545   34548   34551
   34554   34557   34560   34563   34566   34569   34572   34575   34578   34581
   34584   34587   34590   34593   34596   34599   34602   34605   34608   34611
   34614   34617   34620   34623   34626   34629   34632   34635   34638   34641
   34644   34647   34650   34653   34656   34659   34662   34665   34668   34671
   34674   34677   34680   34683   34686   34689   34692   34695   34698   34701
   34704   34707   34710   34713   34716   34719   34722   34725   34728   34731
   34734   34737   34740   34743   34746   34749   34752   34755   34758   34761
   34764   34767   34770   34773   34776   34779   34782   34785   34788   34791
   34794   34797   34800   34803   34806   34809   34812   34815   34818   34821
   34824   34827   34830   34833   34836   34839   34842   34845   34848   34851
   34854   34857   34860   34863   34866   34869   34872   34875   34878   34881
   34884   34887   34890   34893   34896   34899   34902   34905   34908   34911
   34914   34917   34920   34923   34926   34929   34932   34935   34938   34941
   34944   34947   34950   34953   34956   34959   34962   34965   34968   34971
   34974   34977   34980   34983   34986   34989   34992   34995   34998   35001
   35004   35007   35010   35013   35016   35019   35022   35025   35028   35031
   35034   35037   35040   35043   35046   35049   35052   35055   35058   35061
   35064   35067   35070   35073   35076   35079   35082   35085   35088   35091
   35094   35097   35100   35103   35106   35109   35112   35115   35118   35121
   35124   35127   35130   35133   35136   35139   35142   35145   35148   35151
   35154   35157   35160   35163   35166   35169   35172   35175   35178   35181
   35184   35187   35190   35193   35196   35199   35202   35205   35208   35211
   35214   35217   35220   35223   35226   35229   35232   35235   35238   35241
   35244   35247   35250   35253   35256   35259   35262   35265   35268   35271
   35274   35277   35280   35283   35286   35289   35292   35295   35298   35301
   35304   35307   35310   35313   35316   35319   35322   35325   35328   35331
   35334   35337   35340   35343   35346   35349   35352   35355   35358   35361
   35364   35367   35370   35373   35376   35379   35382   35385   35388   35391
   35394   35397   35400   35403   35406   35409   35412   35415   35418   35421
   35424   35427   35430   35433   35436   35439   35442   35445   35448   35451
   35454   35457   35460   35463   35466   35469   35472   35475   35478   35481
   35484   35487   35490   35493   35496   35499   35502   35505   35508   35511
   35514   35517   35520   35523   35526   35529   35532   35535   35538   35541
   35544   35547   35550   35553   35556   35559   35562   35565   35568   35571
   35574   35577   35580   35583   35586   35589   35592   35595   35598   35601
   35604   35607   35610   35613   35616   35619   35622   35625   35628   35631
   35634   35637   35640   35643   35646   35649   35652   35655   35658   35661
   35664   35667   35670   35673   35676   35679   35682   35685   35688   35691
   35694   35697   35700   35703   35706   35709   35712   35715   35718   35721
   35724   35727   35730   35733   35736   35739   35742   35745   35748   35751
   35754   35757   35760   35763   35766   35769   35772   35775   35778   35781
   35784   35787   35790   35793   35796   35799   35802   35805   35808   35811
   35814   35817   35820   35823   35826   35829   35832   35835   35838   35841
   35844   35847   35850   35853   35856   35859   35862   35865   35868   35871
   35874   35877   35880   35883   35886   35889   35892   35895   35898   35901
   35904   35907   35910   35913   35916   35919   35922   35925   35928   35931
   35934   35937   35940   35943   35946   35949   35952   35955   35958   35961
   35964   35967   35970   35973   35976   35979   35982   35985   35988   35991
   35994   35997   36000   36003   36006   36009   36012   36015   36018   36021
   36024   36027   36030   36033   36036   36039   36042   36045   36048   36051
   36054   36057   36060   36063   36066   36069   36072   36075   36078   36081
   36084   36087   36090   36093   36096   36099   36102   36105   36108   36111
   36114   36117   36120   36123   36126   36129   36132   36135   36138   36141
   36144   36147   36150   36153   36156   36159   36162   36165   36168   36171
   36174   36177   36180   36183   36186   36189   36192   36195   36198   36201
   36204   36207   36210   36213   36216   36219   36222   36225   36228   36231
   36234   36237   36240   36243   36246   36249   36252   36255   36258   36261
   36264   36267   36270   36273   36276   36279   36282   36285   36288   36291
   36294   36297   36300   36303   36306   36309   36312   36315   36318   36321
   36324   36327   36330   36333   36336   36339   36342   36345   36348   36351
   36354   36357   36360   36363   36366   36369   36372   36375   36378   36381
   36384   36387   36390   36393   36396   36399   36402   36405   36408   36411
   36414   36417   36420   36423   36426   36429   36432   36435   36438   36441
   36444   36447   36450   36453   36456   36459   36462   36465   36468   36471
   36474   36477   36480   36483   36486   36489   36492   36495   36498   36501
   36504   36507   36510   36513   36516   36519   36522   36525   36528   36531
   36534   36537   36540   36543   36546   36549   36552   36555   36558   36561
   36564   36567   36570   36573   36576   36579   36582   36585   36588   36591
   36594   36597   36600   36603   36606   36609   36612   36615   36618   36621
   36624   36627   36630   36633   36636   36639   36642   36645   36648   36651
   36654   36657   36660   36663   36666   36669   36672   36675   36678   36681
   36684   36687   36690   36693   36696   36699   36702   36705   36708   36711
   36714   36717   36720   36723   36726   36729   36732   36735   36738   36741
   36744   36747   36750   36753   36756   36759   36762   36765   36768   36771
   36774   36777   36780   36783   36786   36789   36792   36795   36798   36801
   36804   36807   36810   36813   36816   36819   36822   36825   36828   36831
   36834   36837   36840   36843   36846   36849   36852   36855   36858   36861
   36864   36867   36870   36873   36876   36879   36882   36885   36888   36891
   36894   36897   36900   36903   36906   36909   36912   36915   36918   36921
   36924   36927   36930   36933   36936   36939   36942   36945   36948   36951
   36954   36957   36960   36963   36966   36969   36972   36975   36978   36981
   36984   36987   36990   36993   36996   36999   37002   37005   37008   37011
   37014   37017   37020   37023   37026   37029   37032   37035   37038   37041
   37044   37047   37050   37053   37056   37059   37062   37065   37068   37071
   37074   37077   37080   37083   37086   37089   37092   37095   37098   37101
   37104   37107   37110   37113   37116   37119   37122   37125   37128   37131
   37134   37137   37140   37143   37146   37149   37152   37155   37158   37161
   37164   37167   37170   37173   37176   37179   37182   37185   37188   37191
   37194   37197   37200   37203   37206   37209   37212   37215   37218   37221
   37224   37227   37230   37233   37236   37239   37242   37245   37248   37251
   37254   37257   37260   37263   37266   37269   37272   37275   37278   37281
   37284   37287   37290   37293   37296   37299   37302   37305   37308   37311
   37314   37317   37320   37323   37326   37329   37332   37335   37338   37341
   37344   37347   37350   37353   37356   37359   37362   37365   37368   37371
   37374   37377   37380   37383   37386   37389   37392   37395   37398   37401
   37404   37407   37410   37413   37416   37419   37422   37425   37428   37431
   37434   37437   37440   37443   37446   37449   37452   37455   37458   37461
   37464   37467   37470   37473   37476   37479   37482   37485   37488   37491
   37494   37497   37500   37503   37506   37509   37512   37515   37518   37521
   37524   37527   37530   37533   37536   37539   37542   37545   37548   37551
   37554   37557   37560   37563   37566   37569   37572   37575   37578   37581
   37584   37587   37590   37593   37596   37599   37602   37605   37608   37611
   37614   37617   37620   37623   37626   37629   37632   37635   37638   37641
   37644   37647   37650   37653   37656   37659   37662   37665   37668   37671
   37674   37677   37680   37683   37686   37689   37692   37695   37698   37701
   37704   37707   37710   37713   37716   37719   37722   37725   37728   37731
   37734   37737   37740   37743   37746   37749   37752   37755   37758   37761
   37764   37767   37770   37773   37776   37779   37782   37785   37788   37791
   37794   37797   37800   37803   37806   37809   37812   37815   37818   37821
   37824   37827   37830   37833   37836   37839   37842   37845   37848   37851
   37854   37857   37860   37863   37866   37869   37872   37875   37878   37881
   37884   37887   37890   37893   37896   37899   37902   37905   37908   37911
   37914   37917   37920   37923   37926   37929   37932   37935   37938   37941
   37944   37947   37950   37953   37956   37959   37962   37965   37968   37971
   37974   37977   37980   37983   37986   37989   37992   37995   37998   38001
   38004   38007   38010   38013   38016   38019   38022   38025   38028   38031
   38034   38037   38040   38043   38046   38049   38052   38055   38058   38061
   38064   38067   38070   38073   38076   38079   38082   38085   38088   38091
   38094   38097   38100   38103   38106   38109   38112   38115   38118   38121
   38124   38127   38130   38133   38136   38139   38142   38145   38148   38151
   38154   38157   38160   38163   38166   38169   38172   38175   38178   38181
   38184   38187   38190   38193   38196   38199   38202   38205   38208   38211
   38214   38217   38220   38223   38226   38229   38232   38235   38238   38241
   38244   38247   38250   38253   38256   38259   38262   38265   38268   38271
   38274   38277   38280   38283   38286   38289   38292   38295   38298   38301
   38304   38307   38310   38313   38316   38319   38322   38325   38328   38331
   38334   38337   38340   38343   38346   38349   38352   38355   38358   38361
   38364   38367   38370   38373   38376   38379   38382   38385   38388   38391
   38394   38397   38400   38403   38406   38409   38412   38415   38418   38421
   38424   38427   38430   38433   38436   38439   38442   38445   38448   38451
   38454   38457   38460   38463   38466   38469   38472   38475   38478   38481
   38484   38487   38490   38493   38496   38499   38502   38505   38508   38511
   38514   38517   38520   38523   38526   38529   38532   38535   38538   38541
   38544   38547   38550   38553   38556   38559   38562   38565   38568   38571
   38574   38577   38580   38583   38586   38589   38592   38595   38598   38601
   38604   38607   38610   38613   38616   38619   38622   38625   38628   38631
   38634   38637   38640   38643   38646   38649   38652   38655   38658   38661
   38664   38667   38670   38673   38676   38679   38682   38685   38688   38691
   38694   38697   38700   38703   38706   38709   38712   38715   38718   38721
   38724   38727   38730   38733   38736   38739   38742   38745   38748   38751
   38754   38757   38760   38763   38766   38769   38772   38775   38778   38781
   38784   38787   38790   38793   38796   38799   38802   38805   38808   38811
   38814   38817   38820   38823   38826   38829   38832   38835   38838   38841
   38844   38847   38850   38853   38856   38859   38862   38865   38868   38871
   38874   38877   38880   38883   38886   38889   38892   38895   38898   38901
   38904   38907   38910   38913   38916   38919   38922   38925   38928   38931
   38934   38937   38940   38943   38946   38949   38952   38955   38958   38961
   38964   38967   38970   38973   38976   38979   38982   38985   38988   38991
   38994   38997   39000   39003   39006   39009   39012   39015   39018   39021
   39024   39027   39030   39033   39036   39039   39042   39045   39048   39051
   39054   39057   39060   39063   39066   39069   39072   39075   39078   39081
   39084   39087   39090   39093   39096   39099   39102   39105   39108   39111
   39114   39117   39120   39123   39126   39129   39132   39135   39138   39141
   39144   39147   39150   39153   39156   39159   39162   39165   39168   39171
   39174   39177   39180   39183   39186   39189   39192   39195   39198   39201
   39204   39207   39210   39213   39216   39219   39222   39225   39228   39231
   39234   39237   39240   39243   39246   39249   39252   39255   39258   39261
   39264   39267   39270   39273   39276   39279   39282   39285   39288   39291
   39294   39297   39300   39303   39306   39309   39312   39315   39318   39321
   39324   39327   39330   39333   39336   39339   39342   39345   39348   39351
   39354   39357   39360   39363   39366   39369   39372   39375   39378   39381
   39384   39387   39390   39393   39396   39399   39402   39405   39408   39411
   39414   39417   39420   39423   39426   39429   39432   39435   39438   39441
   39444   39447   39450   39453   39456   39459   39462   39465   39468   39471
   39474   39477   39480   39483   39486   39489   39492   39495   39498   39501
   39504   39507   39510   39513   39516   39519   39522   39525   39528   39531
   39534   39537   39540   39543   39546   39549   39552   39555   39558   39561
   39564   39567   39570   39573   39576   39579   39582   39585   39588   39591
   39594   39597   39600   39603   39606   39609   39612   39615   39618   39621
   39624   39627   39630   39633   39636   39639   39642   39645   39648   39651
   39654   39657   39660   39663   39666   39669   39672   39675   39678   39681
   39684   39687   39690   39693   39696   39699   39702   39705   39708   39711
   39714   39717   39720   39723   39726   39729   39732   39735   39738   39741
   39744   39747   39750   39753   39756   39759   39762   39765   39768   39771
   39774   39777   39780   39783   39786   39789   39792   39795   39798   39801
   39804   39807   39810   39813   39816   39819   39822   39825   39828   39831
   39834   39837   39840   39843   39846   39849   39852   39855   39858   39861
   39864   39867   39870   39873   39876   39879   39882   39885   39888   39891
   39894   39897   39900   39903   39906   39909   39912   39915   39918   39921
   39924   39927   39930   39933   39936   39939   39942   39945   39948   39951
   39954   39957   39960   39963   39966   39969   39972   39975   39978   39981
   39984   39987   39990   39993   39996   39999   40002   40005   40008   40011
   40014   40017   40020   40023   40026   40029   40032   40035   40038   40041
   40044   40047   40050   40053   40056   40059   40062   40065   40068   40071
   40074   40077   40080   40083   40086   40089   40092   40095   40098   40101
   40104   40107   40110   40113   40116   40119   40122   40125   40128   40131
   40134   40137   40140   40143   40146   40149   40152   40155   40158   40161
   40164   40167   40170   40173   40176   40179   40182   40185   40188   40191
   40194   40197   40200   40203   40206   40209   40212   40215   40218   40221
   40224   40227   40230   40233   40236   40239   40242   40245   40248   40251
   40254   40257   40260   40263   40266   40269   40272   40275   40278   40281
   40284   40287   40290   40293   40296   40299   40302   40305   40308   40311
   40314   40317   40320   40323   40326   40329   40332   40335   40338   40341
   40344   40347   40350   40353   40356   40359   40362   40365   40368   40371
   40374   40377   40380   40383   40386   40389   40392   40395   40398   40401
   40404   40407   40410   40413   40416   40419   40422   40425   40428   40431
   40434   40437   40440   40443   40446   40449   40452   40455   40458   40461
   40464   40467   40470   40473   40476   40479   40482   40485   40488   40491
   40494   40497   40500   40503   40506   40509   40512   40515   40518   40521
   40524   40527   40530   40533   40536   40539   40542   40545   40548   40551
   40554   40557   40560   40563   40566   40569   40572   40575   40578   40581
   40584   40587   40590   40593   40596   40599   40602   40605   40608   40611
   40614   40617   40620   40623   40626   40629   40632   40635   40638   40641
   40644   40647   40650   40653   40656   40659   40662   40665   40668   40671
   40674   40677   40680   40683   40686   40689   40692   40695   40698   40701
   40704   40707   40710   40713   40716   40719   40722   40725   40728   40731
   40734   40737   40740   40743   40746   40749   40752   40755   40758   40761
   40764   40767   40770   40773   40776   40779   40782   40785   40788   40791
   40794   40797   40800   40803   40806   40809   40812   40815   40818   40821
   40824   40827   40830   40833   40836   40839   40842   40845   40848   40851
   40854   40857   40860   40863   40866   40869   40872   40875   40878   40881
   40884   40887   40890   40893   40896   40899   40902   40905   40908   40911
   40914   40917   40920   40923   40926   40929   40932   40935   40938   40941
   40944   40947   40950   40953   40956   40959   40962   40965   40968   40971
   40974   40977   40980   40983   40986   40989   40992   40995   40998   41001
   41004   41007   41010   41013   41016   41019   41022   41025   41028   41031
   41034   41037   41040   41043   41046   41049   41052   41055   41058   41061
   41064   41067   41070   41073   41076   41079   41082   41085   41088   41091
   41094   41097   41100   41103   41106   41109   41112   41115   41118   41121
   41124   41127   41130   41133   41136   41139   41142   41145   41148   41151
   41154   41157   41160   41163   41166   41169   41172   41175   41178   41181
   41184   41187   41190   41193   41196   41199   41202   41205   41208   41211
   41214   41217   41220   41223   41226   41229   41232   41235   41238   41241
   41244   41247   41250   41253   41256   41259   41262   41265   41268   41271
   41274   41277   41280   41283   41286   41289   41292   41295   41298   41301
   41304   41307   41310   41313   41316   41319   41322   41325   41328   41331
   41334   41337   41340   41343   41346   41349   41352   41355   41358   41361
   41364   41367   41370   41373   41376   41379   41382   41385   41388   41391
   41394   41397   41400   41403   41406   41409   41412   41415   41418   41421
   41424   41427   41430   41433   41436   41439   41442   41445   41448   41451
   41454   41457   41460   41463   41466   41469   41472   41475   41478   41481
   41484   41487   41490   41493   41496   41499   41502   41505   41508   41511
   41514   41517   41520   41523   41526   41529   41532   41535   41538   41541
   41544   41547   41550   41553   41556   41559   41562   41565   41568   41571
   41574   41577   41580   41583   41586   41589   41592   41595   41598   41601
   41604   41607   41610   41613   41616   41619   41622   41625   41628   41631
   41634   41637   41640   41643   41646   41649   41652   41655   41658   41661
   41664   41667   41670   41673   41676   41679   41682   41685   41688   41691
   41694   41697   41700   41703   41706   41709   41712   41715   41718   41721
   41724   41727   41730   41733   41736   41739   41742   41745   41748   41751
   41754   41757   41760   41763   41766   41769   41772   41775
%FLAG BOND_FORCE_CONSTANT                                                       
%FORMAT(5E16.8)                                                                 
  3.54250000E+02  3.60690000E+02  3.57290000E+02  4.36000000E+02  5.90600000E+02
  5.35510000E+02  3.16700000E+02  3.30600000E+02  3.31700000E+02  3.00900000E+02
  3.08600000E+02  3.44220000E+02  2.85150000E+02  3.00900000E+02  2.82270000E+02
  3.45250000E+02  2.28890000E+02  3.17460000E+02  2.54460000E+02  3.30600000E+02
  3.26800000E+02  3.00900000E+02  3.13000000E+02  5.53000000E+02  5.53000000E+02
%FLAG BOND_EQUIL_VALUE                                                          
%FORMAT(5E16.8)                                                                 
  1.39860000E+00  1.08600000E+00  1.08820000E+00  1.33790000E+00  1.21900000E+00
  9.72500000E-01  1.42300000E+00  1.09700000E+00  1.09600000E+00  1.53800000E+00
  1.43200000E+00  1.09690000E+00  1.42420000E+00  1.53800000E+00  1.42730000E+00
  1.09620000E+00  1.53540000E+00  1.39670000E+00  1.46430000E+00  1.09700000E+00
  1.51000000E+00  1.53800000E+00  1.52400000E+00  9.57200000E-01  1.51360000E+00
%FLAG ANGLE_FORCE_CONSTANT                                                      
%FORMAT(5E16.8)                                                                 
  6.36700000E+01  4.49000000E+01  4.63700000E+01  3.46600000E+01  6.41000000E+01
  3.56400000E+01  3.58000000E+01  3.94000000E+01  5.09000000E+01  4.74000000E+01
  4.62000000E+01  4.64000000E+01  5.11000000E+01  6.75000000E+01  7.26000000E+01
  5.09000000E+01  6.80000000E+01  5.08000000E+01  5.62900000E+01  6.80000000E+01
  4.64000000E+01  6.51300000E+01  6.27000000E+01  4.64000000E+01  6.75000000E+01
  6.29000000E+01  6.29000000E+01  5.62000000E+01  6.27000000E+01  4.32700000E+01
  4.32800000E+01  7.74400000E+01  5.98700000E+01  7.72400000E+01  8.66800000E+01
  6.49500000E+01  4.80900000E+01  4.69000000E+01  4.70000000E+01  4.63000000E+01
  4.59000000E+01  6.34000000E+01  6.29000000E+01  6.33000000E+01  6.74000000E+01
  6.68000000E+01  7.71500000E+01
%FLAG ANGLE_EQUIL_VALUE                                                         
%FORMAT(5E16.8)                                                                 
  2.09474507E+00  2.09230160E+00  2.10120279E+00  2.03610198E+00  2.15775148E+00
  1.89455572E+00  1.88024401E+00  1.87762601E+00  1.92440086E+00  1.87204096E+00
  1.92370273E+00  1.91218355E+00  1.90991462E+00  1.92317913E+00  1.90904195E+00
  1.91253261E+00  1.88443280E+00  1.91602327E+00  1.92649525E+00  1.88443280E+00
  1.91218355E+00  1.87430989E+00  1.96314718E+00  1.91218355E+00  1.92317913E+00
  1.94621748E+00  1.94621748E+00  1.92579712E+00  1.96314718E+00  1.91427794E+00
  1.91270715E+00  1.87832415E+00  1.96576518E+00  2.07397564E+00  2.13925098E+00
  1.96838317E+00  1.89822091E+00  1.89839544E+00  1.92614619E+00  1.91637234E+00
  2.01899774E+00  1.94709015E+00  1.94621748E+00  1.93801443E+00  2.15024656E+00
  2.01027109E+00  2.18532769E+00
%FLAG DIHEDRAL_FORCE_CONSTANT                                                   
%FORMAT(5E16.8)                                                                 
  3.62500000E+00  6.65000000E+00  0.00000000E+00  1.15000000E+00  3.80000000E-01
  1.66666667E-01  1.55555556E-01  1.23000000E-01  1.20000000E-01  1.50000000E-01
  0.00000000E+00  2.50000000E-01  0.00000000E+00  1.60000000E-01  1.17500000E+00
  1.44000000E-01  3.83333333E-01  1.00000000E-01  3.83000000E-01  2.00000000E-01
  2.50000000E-01  1.80000000E-01  1.30000000E-01  2.26000000E+00  3.00000000E-02
  6.50000000E-01  5.20000000E-01  2.50000000E+00  1.00000000E-01  8.00000000E-01
  8.00000000E-02  7.00000000E-02  1.00000000E-01  1.50000000E+00  1.10000000E+00
  1.05000000E+01
%FLAG DIHEDRAL_PERIODICITY                                                      
%FORMAT(5E16.8)                                                                 
  2.00000000E+00  2.00000000E+00  2.00000000E+00  1.00000000E+00  3.00000000E+00
  3.00000000E+00  3.00000000E+00  3.00000000E+00  3.00000000E+00  3.00000000E+00
  2.00000000E+00  1.00000000E+00  3.00000000E+00  3.00000000E+00  2.00000000E+00
  3.00000000E+00  3.00000000E+00  2.00000000E+00  3.00000000E+00  1.00000000E+00
  2.00000000E+00  3.00000000E+00  3.00000000E+00  1.00000000E+00  3.00000000E+00
  4.00000000E+00  3.00000000E+00  2.00000000E+00  3.00000000E+00  1.00000000E+00
  3.00000000E+00  2.00000000E+00  4.00000000E+00  1.00000000E+00  2.00000000E+00
  2.00000000E+00
%FLAG DIHEDRAL_PHASE                                                            
%FORMAT(5E16.8)                                                                 
  3.14159400E+00  3.14159400E+00  0.00000000E+00  0.00000000E+00  3.14159400E+00
  0.00000000E+00  0.00000000E+00  0.00000000E+00  0.00000000E+00  0.00000000E+00
  3.14159400E+00  0.00000000E+00  0.00000000E+00  0.00000000E+00  0.00000000E+00
  0.00000000E+00  0.00000000E+00  3.14159400E+00  0.00000000E+00  3.14159400E+00
  3.14159400E+00  0.00000000E+00  0.00000000E+00  0.00000000E+00  3.14159400E+00
  3.14159400E+00  0.00000000E+00  3.14159400E+00  0.00000000E+00  0.00000000E+00
  3.14159400E+00  0.00000000E+00  0.00000000E+00  3.14159400E+00  3.14159400E+00
  3.14159400E+00
%FLAG SCEE_SCALE_FACTOR                                                         
%FORMAT(5E16.8)                                                                 
  1.20000000E+00  1.20000000E+00  1.20000000E+00  1.20000000E+00  1.20000000E+00
  1.20000000E+00  1.20000000E+00  1.20000000E+00  1.20000000E+00  1.20000000E+00
  1.20000000E+00  1.20000000E+00  1.20000000E+00  1.20000000E+00  1.20000000E+00
  1.20000000E+00  1.20000000E+00  1.20000000E+00  1.20000000E+00  1.20000000E+00
  1.20000000E+00  1.20000000E+00  1.20000000E+00  1.20000000E+00  1.20000000E+00
  1.20000000E+00  1.20000000E+00  1.20000000E+00  1.20000000E+00  1.20000000E+00
  1.20000000E+00  1.20000000E+00  1.20000000E+00  1.20000000E+00  0.00000000E+00
  0.00000000E+00
%FLAG SCNB_SCALE_FACTOR                                                         
%FORMAT(5E16.8)                                                                 
  2.00000000E+00  2.00000000E+00  2.00000000E+00  2.00000000E+00  2.00000000E+00
  2.00000000E+00  2.00000000E+00  2.00000000E+00  2.00000000E+00  2.00000000E+00
  2.00000000E+00  2.00000000E+00  2.00000000E+00  2.00000000E+00  2.00000000E+00
  2.00000000E+00  2.00000000E+00  2.00000000E+00  2.00000000E+00  2.00000000E+00
  2.00000000E+00  2.00000000E+00  2.00000000E+00  2.00000000E+00  2.00000000E+00
  2.00000000E+00  2.00000000E+00  2.00000000E+00  2.00000000E+00  2.00000000E+00
  2.00000000E+00  2.00000000E+00  2.00000000E+00  2.00000000E+00  0.00000000E+00
  0.00000000E+00
%FLAG SOLTY                                                                     
%FORMAT(5E16.8)                                                                 
  0.00000000E+00  0.00000000E+00  0.00000000E+00  0.00000000E+00  0.00000000E+00
  0.00000000E+00  0.00000000E+00  0.00000000E+00  0.00000000E+00  0.00000000E+00
  0.00000000E+00  0.00000000E+00  0.00000000E+00  0.00000000E+00  0.00000000E+00
  0.00000000E+00  0.00000000E+00
%FLAG LENNARD_JONES_ACOEF                                                       
%FORMAT(5E16.8)                                                                 
  6.96551276E+05  7.52549148E+04  6.90855956E+03  5.17507491E+05  5.27277400E+04
  3.76435470E+05  8.53193737E+05  9.38067954E+04  6.37913494E+05  1.04308023E+06
  8.12662403E+04  7.41026906E+03  5.68021765E+04  1.01372942E+05  7.94617769E+03
  7.01106848E+05  7.35931098E+04  5.15491878E+05  8.61458248E+05  7.93773615E+04
  7.02078680E+05  8.43969952E+05  9.27554496E+04  6.30925504E+05  1.03184851E+06
  1.00235148E+05  8.52084164E+05  1.02073671E+06  4.46121722E+05  4.65732396E+04
  3.27367585E+05  5.48478208E+05  5.02224902E+04  4.46307018E+05  5.42502534E+05
  2.83662575E+05  5.92438683E+05  6.30298721E+04  4.37717034E+05  7.26877088E+05
  6.80216136E+04  5.94682930E+05  7.18991463E+05  3.78207390E+05  5.03152404E+05
  5.63013422E+04  4.88692384E+03  3.86646725E+04  7.06006146E+04  5.22955465E+03
  5.45183252E+04  6.97998263E+04  3.44374471E+04  4.69084694E+04  3.39005767E+03
  2.25372434E+02  8.53132435E+00  1.15813907E+02  3.07630260E+02  8.80612241E+00
  1.89434762E+02  3.03553352E+02  1.16469347E+02  1.74176419E+02  4.36660257E+00
  1.10360882E-05  3.85565555E+04  3.17496391E+03  2.59855087E+04  4.86195279E+04
  3.39005767E+03  3.69926172E+04  4.80619274E+04  2.33261683E+04  3.19666529E+04
  2.16218723E+03  2.07292270E+00  1.35510742E+03  6.39146293E+05  6.66452723E+04
  4.68810254E+05  7.85890042E+05  7.18637611E+04  6.39277296E+05  7.77325489E+05
  4.06293937E+05  5.41786538E+05  4.92592636E+04  1.65622133E+02  3.33530397E+04
  5.81935564E+05  0.00000000E+00  0.00000000E+00  0.00000000E+00  0.00000000E+00
  0.00000000E+00  0.00000000E+00  0.00000000E+00  0.00000000E+00  0.00000000E+00
  0.00000000E+00  0.00000000E+00  0.00000000E+00  0.00000000E+00  0.00000000E+00
%FLAG LENNARD_JONES_BCOEF                                                       
%FORMAT(5E16.8)                                                                 
  5.24668528E+02  1.09570372E+02  2.10929191E+01  4.98871431E+02  1.01173582E+02
  4.69350655E+02  5.95658566E+02  1.25489661E+02  5.68167388E+02  6.75612247E+02
  1.21392023E+02  2.32899892E+01  1.11953944E+02  1.39078880E+02  2.57122925E+01
  5.97113873E+02  1.22913863E+02  5.64804067E+02  6.78964813E+02  1.36094315E+02
  6.77820248E+02  5.90251928E+02  1.24325688E+02  5.62969425E+02  6.69494459E+02
  1.37787728E+02  6.72777963E+02  6.63431737E+02  3.88758656E+02  7.98066064E+01
  3.67361018E+02  4.42179058E+02  8.83545880E+01  4.41089616E+02  4.38146883E+02
  2.87011518E+02  4.76608379E+02  9.87712192E+01  4.51916854E+02  5.41546250E+02
  1.09393126E+02  5.41675626E+02  5.36620538E+02  3.52573684E+02  4.32634597E+02
  1.01040256E+02  1.89134207E+01  9.23664132E+01  1.16065835E+02  2.08590256E+01
  1.12788003E+02  1.14981426E+02  7.31636661E+01  9.08431526E+01  1.67944276E+01
  4.40751799E+00  5.44840215E-01  3.48534600E+00  5.28230309E+00  5.90150328E-01
  4.58384710E+00  5.22789272E+00  2.93355636E+00  3.81654050E+00  4.15568027E-01
  4.55498033E-04  8.36149973E+01  1.52447987E+01  7.57220777E+01  9.63175726E+01
  1.67944276E+01  9.29071597E+01  9.54115851E+01  6.02145835E+01  7.49920368E+01
  1.34124560E+01  2.86326700E-01  1.06181419E+01  5.59732167E+02  1.14837052E+02
  5.28811054E+02  6.36687196E+02  1.27133996E+02  6.35011160E+02  6.30880403E+02
  4.13185639E+02  5.07604817E+02  1.05256926E+02  4.20798850E+00  8.66112759E+01
  5.94825035E+02  0.00000000E+00  0.00000000E+00  0.00000000E+00  0.00000000E+00
  0.00000000E+00  0.00000000E+00  0.00000000E+00  0.00000000E+00  0.00000000E+00
  0.00000000E+00  0.00000000E+00  0.00000000E+00  0.00000000E+00  0.00000000E+00
%FLAG BONDS_INC_HYDROGEN                                                        
%FORMAT(10I8)                                                                   
      39      75       2      33      72       2      30      69       2      24
      66       2      21      63       2      18      60       2      12      57
       2       9      54       2       3      51       2       0      48       2
      78      81       3      78      84       3     168     249       6     165
     246       8     162     243       6     159     240       9     153     237
       6     150     231      12     150     234      12     147     228       8
     144     225       6     141     222       8     138     219       8     132
     213      12     132     216      12     129     210      16     129     207
      16     126     204      16     126     201      16     123     195      12
     123     198      12     114     192       3     111     189      20     108
     186      20     108     183      20     105     180       3     102     177
      20      99     117      20      93      96      20     333     414       6
     330     411       8     327     408       6     324     405       9     318
     402       6     315     396      12     315     399      12     312     393
       8     309     390       6     306     387       8     303     384       8
     297     378      12     297     381      12     294     375      16     294
     372      16     291     369      16     291     366      16     288     360
      12     288     363      12     279     357       3     276     354      20
     273     351      20     273     348      20     270     345       3     267
     342      20     264     282      20     258     261      20     498     579
       6     495     576       8     492     573       6     489     570       9
     483     567       6     480     561      12     480     564      12     477
     558       8     474     555       6     471     552       8     468     549
       8     462     543      12     462     546      12     459     540      16
     459     537      16     456     534      16     456     531      16     453
     525      12     453     528      12     444     522       3     441     519
      20     438     516      20     438     513      20     435     510       3
     432     507      20     429     447      20     423     426      20     663
     744       6     660     741       8     657     738       6     654     735
       9     648     732       6     645     726      12     645     729      12
     642     723       8     639     720       6     636     717       8     633
     714       8     627     708      12     627     711      12     624     705
      16     624     702      16     621     699      16     621     696      16
     618     690      12     618     693      12     609     687       3     606
     684      20     603     681      20     603     678      20     600     675
       3     597     672      20     594     612      20     588     591      20
     828     909       6     825     906       8     822     903       6     819
     900       9     813     897       6     810     891      12     810     894
      12     807     888       8     804     885       6     801     882       8
     798     879       8     792     873      12     792     876      12     789
     870      16     789     867      16     786     864      16     786     861
      16     783     855      12     783     858      12     774     852       3
     771     849      20     768     846      20     768     843      20     765
     840       3     762     837      20     759     777      20     753     756
      20     993    1074       6     990    1071       8     987    1068       6
     984    1065       9     978    1062       6     975    1056      12     975
    1059      12     972    1053       8     969    1050       6     966    1047
       8     963    1044       8     957    1038      12     957    1041      12
     954    1035      16     954    1032      16     951    1029      16     951
    1026      16     948    1020      12     948    1023      12     939    1017
       3     936    1014      20     933    1011      20     933    1008      20
     930    1005       3     927    1002      20     924     942      20     918
     921      20    1158    1239       6    1155    1236       8    1152    1233
       6    1149    1230       9    1143    1227       6    1140    1221      12
    1140    1224      12    1137    1218       8    1134    1215       6    1131
    1212       8    1128    1209       8    1122    1203      12    1122    1206
      12    1119    1200      16    1119    1197      16    1116    1194      16
    1116    1191      16    1113    1185      12    1113    1188      12    1104
    1182       3    1101    1179      20    1098    1176      20    1098    1173
      20    1095    1170       3    1092    1167      20    1089    1107      20
    1083    1086      20    1323    1404       6    1320    1401       8    1317
    1398       6    1314    1395       9    1308    1392       6    1305    1386
      12    1305    1389      12    1302    1383       8    1299    1380       6
    1296    1377       8    1293    1374       8    1287    1368      12    1287
    1371      12    1284    1365      16    1284    1362      16    1281    1359
      16    1281    1356      16    1278    1350      12    1278    1353      12
    1269    1347       3    1266    1344      20    1263    1341      20    1263
    1338      20    1260    1335       3    1257    1332      20    1254    1272
      20    1248    1251      20    1488    1569       6    1485    1566       8
    1482    1563       6    1479    1560       9    1473    1557       6    1470
    1551      12    1470    1554      12    1467    1548       8    1464    1545
       6    1461    1542       8    1458    1539       8    1452    1533      12
    1452    1536      12    1449    1530      16    1449    1527      16    1446
    1524      16    1446    1521      16    1443    1515      12    1443    1518
      12    1434    1512       3    1431    1509      20    1428    1506      20
    1428    1503      20    1425    1500       3    1422    1497      20    1419
    1437      20    1413    1416      20    1653    1734       6    1650    1731
       8    1647    1728       6    1644    1725       9    1638    1722       6
    1635    1716      12    1635    1719      12    1632    1713       8    1629
    1710       6    1626    1707       8    1623    1704       8    1617    1698
      12    1617    1701      12    1614    1695      16    1614    1692      16
    1611    1689      16    1611    1686      16    1608    1680      12    1608
    1683      12    1599    1677       3    1596    1674      20    1593    1671
      20    1593    1668      20    1590    1665       3    1587    1662      20
    1584    1602      20    1578    1581      20    1737    1740       3    1737
    1743       3    1746    1749       3    1746    1752       3    1836    1917
       6    1833    1914       8    1830    1911       6    1827    1908       9
    1821    1905       6    1818    1899      12    1818    1902      12    1815
    1896       8    1812    1893       6    1809    1890       8    1806    1887
       8    1800    1881      12    1800    1884      12    1797    1878      16
    1797    1875      16    1794    1872      16    1794    1869      16    1791
    1863      12    1791    1866      12    1782    1860       3    1779    1857
      20    1776    1854      20    1776    1851      20    1773    1848       3
    1770    1845      20    1767    1785      20    1761    1764      20    2001
    2082       6    1998    2079       8    1995    2076       6    1992    2073
       9    1986    2070       6    1983    2064      12    1983    2067      12
    1980    2061       8    1977    2058       6    1974    2055       8    1971
    2052       8    1965    2046      12    1965    2049      12    1962    2043
      16    1962    2040      16    1959    2037      16    1959    2034      16
    1956    2028      12    1956    2031      12    1947    2025       3    1944
    2022      20    1941    2019      20    1941    2016      20    1938    2013
       3    1935    2010      20    1932    1950      20    1926    1929      20
    2166    2247       6    2163    2244       8    2160    2241       6    2157
    2238       9    2151    2235       6    2148    2229      12    2148    2232
      12    2145    2226       8    2142    2223       6    2139    2220       8
    2136    2217       8    2130    2211      12    2130    2214      12    2127
    2208      16    2127    2205      16    2124    2202      16    2124    2199
      16    2121    2193      12    2121    2196      12    2112    2190       3
    2109    2187      20    2106    2184      20    2106    2181      20    2103
    2178       3    2100    2175      20    2097    2115      20    2091    2094
      20    2331    2412       6    2328    2409       8    2325    2406       6
    2322    2403       9    2316    2400       6    2313    2394      12    2313
    2397      12    2310    2391       8    2307    2388       6    2304    2385
       8    2301    2382       8    2295    2376      12    2295    2379      12
    2292    2373      16    2292    2370      16    2289    2367      16    2289
    2364      16    2286    2358      12    2286    2361      12    2277    2355
       3    2274    2352      20    2271    2349      20    2271    2346      20
    2268    2343       3    2265    2340      20    2262    2280      20    2256
    2259      20    2496    2577       6    2493    2574       8    2490    2571
       6    2487    2568       9    2481    2565       6    2478    2559      12
    2478    2562      12    2475    2556       8    2472    2553       6    2469
    2550       8    2466    2547       8    2460    2541      12    2460    2544
      12    2457    2538      16    2457    2535      16    2454    2532      16
    2454    2529      16    2451    2523      12    2451    2526      12    2442
    2520       3    2439    2517      20    2436    2514      20    2436    2511
      20    2433    2508       3    2430    2505      20    2427    2445      20
    2421    2424      20    2661    2742       6    2658    2739       8    2655
    2736       6    2652    2733       9    2646    2730       6    2643    2724
      12    2643    2727      12    2640    2721       8    2637    2718       6
    2634    2715       8    2631    2712       8    2625    2706      12    2625
    2709      12    2622    2703      16    2622    2700      16    2619    2697
      16    2619    2694      16    2616    2688      12    2616    2691      12
    2607    2685       3    2604    2682      20    2601    2679      20    2601
    2676      20    2598    2673       3    2595    2670      20    2592    2610
      20    2586    2589      20    2826    2907       6    2823    2904       8
    2820    2901       6    2817    2898       9    2811    2895       6    2808
    2889      12    2808    2892      12    2805    2886       8    2802    2883
       6    2799    2880       8    2796    2877       8    2790    2871      12
    2790    2874      12    2787    2868      16    2787    2865      16    2784
    2862      16    2784    2859      16    2781    2853      12    2781    2856
      12    2772    2850       3    2769    2847      20    2766    2844      20
    2766    2841      20    2763    2838       3    2760    2835      20    2757
    2775      20    2751    2754      20    2991    3072       6    2988    3069
       8    2985    3066       6    2982    3063       9    2976    3060       6
    2973    3054      12    2973    3057      12    2970    3051       8    2967
    3048       6    2964    3045       8    2961    3042       8    2955    3036
      12    2955    3039      12    2952    3033      16    2952    3030      16
    2949    3027      16    2949    3024      16    2946    3018      12    2946
    3021      12    2937    3015       3    2934    3012      20    2931    3009
      20    2931    3006      20    2928    3003       3    2925    3000      20
    2922    2940      20    2916    2919      20    3156    3237       6    3153
    3234       8    3150    3231       6    3147    3228       9    3141    3225
       6    3138    3219      12    3138    3222      12    3135    3216       8
    3132    3213       6    3129    3210       8    3126    3207       8    3120
    3201      12    3120    3204      12    3117    3198      16    3117    3195
      16    3114    3192      16    3114    3189      16    3111    3183      12
    3111    3186      12    3102    3180       3    3099    3177      20    3096
    3174      20    3096    3171      20    3093    3168       3    3090    3165
      20    3087    3105      20    3081    3084      20    3321    3402       6
    3318    3399       8    3315    3396       6    3312    3393       9    3306
    3390       6    3303    3384      12    3303    3387      12    3300    3381
       8    3297    3378       6    3294    3375       8    3291    3372       8
    3285    3366      12    3285    3369      12    3282    3363      16    3282
    3360      16    3279    3357      16    3279    3354      16    3276    3348
      12    3276    3351      12    3267    3345       3    3264    3342      20
    3261    3339      20    3261    3336      20    3258    3333       3    3255
    3330      20    3252    3270      20    3246    3249      20    3405    3408
       3    3405    3411       3    3414    3417       3    3414    3420       3
    3504    3585       6    3501    3582       8    3498    3579       6    3495
    3576       9    3489    3573       6    3486    3567      12    3486    3570
      12    3483    3564       8    3480    3561       6    3477    3558       8
    3474    3555       8    3468    3549      12    3468    3552      12    3465
    3546      16    3465    3543      16    3462    3540      16    3462    3537
      16    3459    3531      12    3459    3534      12    3450    3528       3
    3447    3525      20    3444    3522      20    3444    3519      20    3441
    3516       3    3438    3513      20    3435    3453      20    3429    3432
      20    3669    3750       6    3666    3747       8    3663    3744       6
    3660    3741       9    3654    3738       6    3651    3732      12    3651
    3735      12    3648    3729       8    3645    3726       6    3642    3723
       8    3639    3720       8    3633    3714      12    3633    3717      12
    3630    3711      16    3630    3708      16    3627    3705      16    3627
    3702      16    3624    3696      12    3624    3699      12    3615    3693
       3    3612    3690      20    3609    3687      20    3609    3684      20
    3606    3681       3    3603    3678      20    3600    3618      20    3594
    3597      20    3834    3915       6    3831    3912       8    3828    3909
       6    3825    3906       9    3819    3903       6    3816    3897      12
    3816    3900      12    3813    3894       8    3810    3891       6    3807
    3888       8    3804    3885       8    3798    3879      12    3798    3882
      12    3795    3876      16    3795    3873      16    3792    3870      16
    3792    3867      16    3789    3861      12    3789    3864      12    3780
    3858       3    3777    3855      20    3774    3852      20    3774    3849
      20    3771    3846       3    3768    3843      20    3765    3783      20
    3759    3762      20    3999    4080       6    3996    4077       8    3993
    4074       6    3990    4071       9    3984    4068       6    3981    4062
      12    3981    4065      12    3978    4059       8    3975    4056       6
    3972    4053       8    3969    4050       8    3963    4044      12    3963
    4047      12    3960    4041      16    3960    4038      16    3957    4035
      16    3957    4032      16    3954    4026      12    3954    4029      12
    3945    4023       3    3942    4020      20    3939    4017      20    3939
    4014      20    3936    4011       3    3933    4008      20    3930    3948
      20    3924    3927      20    4164    4245       6    4161    4242       8
    4158    4239       6    4155    4236       9    4149    4233       6    4146
    4227      12    4146    4230      12    4143    4224       8    4140    4221
       6    4137    4218       8    4134    4215       8    4128    4209      12
    4128    4212      12    4125    4206      16    4125    4203      16    4122
    4200      16    4122    4197      16    4119    4191      12    4119    4194
      12    4110    4188       3    4107    4185      20    4104    4182      20
    4104    4179      20    4101    4176       3    4098    4173      20    4095
    4113      20    4089    4092      20    4329    4410       6    4326    4407
       8    4323    4404       6    4320    4401       9    4314    4398       6
    4311    4392      12    4311    4395      12    4308    4389       8    4305
    4386       6    4302    4383       8    4299    4380       8    4293    4374
      12    4293    4377      12    4290    4371      16    4290    4368      16
    4287    4365      16    4287    4362      16    4284    4356      12    4284
    4359      12    4275    4353       3    4272    4350      20    4269    4347
      20    4269    4344      20    4266    4341       3    4263    4338      20
    4260    4278      20    4254    4257      20    4494    4575       6    4491
    4572       8    4488    4569       6    4485    4566       9    4479    4563
       6    4476    4557      12    4476    4560      12    4473    4554       8
    4470    4551       6    4467    4548       8    4464    4545       8    4458
    4539      12    4458    4542      12    4455    4536      16    4455    4533
      16    4452    4530      16    4452    4527      16    4449    4521      12
    4449    4524      12    4440    4518       3    4437    4515      20    4434
    4512      20    4434    4509      20    4431    4506       3    4428    4503
      20    4425    4443      20    4419    4422      20    4659    4740       6
    4656    4737       8    4653    4734       6    4650    4731       9    4644
    4728       6    4641    4722      12    4641    4725      12    4638    4719
       8    4635    4716       6    4632    4713       8    4629    4710       8
    4623    4704      12    4623    4707      12    4620    4701      16    4620
    4698      16    4617    4695      16    4617    4692      16    4614    4686
      12    4614    4689      12    4605    4683       3    4602    4680      20
    4599    4677      20    4599    4674      20    4596    4671       3    4593
    4668      20    4590    4608      20    4584    4587      20    4824    4905
       6    4821    4902       8    4818    4899       6    4815    4896       9
    4809    4893       6    4806    4887      12    4806    4890      12    4803
    4884       8    4800    4881       6    4797    4878       8    4794    4875
       8    4788    4869      12    4788    4872      12    4785    4866      16
    4785    4863      16    4782    4860      16    4782    4857      16    4779
    4851      12    4779    4854      12    4770    4848       3    4767    4845
      20    4764    4842      20    4764    4839      20    4761    4836       3
    4758    4833      20    4755    4773      20    4749    4752      20    4989
    5070       6    4986    5067       8    4983    5064       6    4980    5061
       9    4974    5058       6    4971    5052      12    4971    5055      12
    4968    5049       8    4965    5046       6    4962    5043       8    4959
    5040       8    4953    5034      12    4953    5037      12    4950    5031
      16    4950    5028      16    4947    5025      16    4947    5022      16
    4944    5016      12    4944    5019      12    4935    5013       3    4932
    5010      20    4929    5007      20    4929    5004      20    4926    5001
       3    4923    4998      20    4920    4938      20    4914    4917      20
    5073    5076       3    5073    5079       3    5085    5082      24    5088
    5082      24    5088    5085      25    5094    5091      24    5097    5091
      24    5097    5094      25    5103    5100      24    5106    5100      24
    5106    5103      25    5112    5109      24    5115    5109      24    5115
    5112      25    5121    5118      24    5124    5118      24    5124    5121
      25    5130    5127      24    5133    5127      24    5133    5130      25
    5139    5136      24    5142    5136      24    5142    5139      25    5148
    5145      24    5151    5145      24    5151    5148      25    5157    5154
      24    5160    5154      24    5160    5157      25    5166    5163      24
    5169    5163      24    5169    5166      25    5175    5172      24    5178
    5172      24    5178    5175      25    5184    5181      24    5187    5181
      24    5187    5184      25    5193    5190      24    5196    5190      24
    5196    5193      25    5202    5199      24    5205    5199      24    5205
    5202      25    5211    5208      24    5214    5208      24    5214    5211
      25    5220    5217      24    5223    5217      24    5223    5220      25
    5229    5226      24    5232    5226      24    5232    5229      25    5238
    5235      24    5241    5235      24    5241    5238      25    5247    5244
      24    5250    5244      24    5250    5247      25    5256    5253      24
    5259    5253      24    5259    5256      25    5265    5262      24    5268
    5262      24    5268    5265      25    5274    5271      24    5277    5271
      24    5277    5274      25    5283    5280      24    5286    5280      24
    5286    5283      25    5292    5289      24    5295    5289      24    5295
    5292      25    5301    5298      24    5304    5298      24    5304    5301
      25    5310    5307      24    5313    5307      24    5313    5310      25
    5319    5316      24    5322    5316      24    5322    5319      25    5328
    5325      24    5331    5325      24    5331    5328      25    5337    5334
      24    5340    5334      24    5340    5337      25    5346    5343      24
    5349    5343      24    5349    5346      25    5355    5352      24    5358
    5352      24    5358    5355      25    5364    5361      24    5367    5361
      24    5367    5364      25    5373    5370      24    5376    5370      24
    5376    5373      25    5382    5379      24    5385    5379      24    5385
    5382      25    5391    5388      24    5394    5388      24    5394    5391
      25    5400    5397      24    5403    5397      24    5403    5400      25
    5409    5406      24    5412    5406      24    5412    5409      25    5418
    5415      24    5421    5415      24    5421    5418      25    5427    5424
      24    5430    5424      24    5430    5427      25    5436    5433      24
    5439    5433      24    5439    5436      25    5445    5442      24    5448
    5442      24    5448    5445      25    5454    5451      24    5457    5451
      24    5457    5454      25    5463    5460      24    5466    5460      24
    5466    5463      25    5472    5469      24    5475    5469      24    5475
    5472      25    5481    5478      24    5484    5478      24    5484    5481
      25    5490    5487      24    5493    5487      24    5493    5490      25
    5499    5496      24    5502    5496      24    5502    5499      25    5508
    5505      24    5511    5505      24    5511    5508      25    5517    5514
      24    5520    5514      24    5520    5517      25    5526    5523      24
    5529    5523      24    5529    5526      25    5535    5532      24    5538
    5532      24    5538    5535      25    5544    5541      24    5547    5541
      24    5547    5544      25    5553    5550      24    5556    5550      24
    5556    5553      25    5562    5559      24    5565    5559      24    5565
    5562      25    5571    5568      24    5574    5568      24    5574    5571
      25    5580    5577      24    5583    5577      24    5583    5580      25
    5589    5586      24    5592    5586      24    5592    5589      25    5598
    5595      24    5601    5595      24    5601    5598      25    5607    5604
      24    5610    5604      24    5610    5607      25    5616    5613      24
    5619    5613      24    5619    5616      25    5625    5622      24    5628
    5622      24    5628    5625      25    5634    5631      24    5637    5631
      24    5637    5634      25    5643    5640      24    5646    5640      24
    5646    5643      25    5652    5649      24    5655    5649      24    5655
    5652      25    5661    5658      24    5664    5658      24    5664    5661
      25    5670    5667      24    5673    5667      24    5673    5670      25
    5679    5676      24    5682    5676      24    5682    5679      25    5688
    5685      24    5691    5685      24    5691    5688      25    5697    5694
      24    5700    5694      24    5700    5697      25    5706    5703      24
    5709    5703      24    5709    5706      25    5715    5712      24    5718
    5712      24    5718    5715      25    5724    5721      24    5727    5721
      24    5727    5724      25    5733    5730      24    5736    5730      24
    5736    5733      25    5742    5739      24    5745    5739      24    5745
    5742      25    5751    5748      24    5754    5748      24    5754    5751
      25    5760    5757      24    5763    5757      24    5763    5760      25
    5769    5766      24    5772    5766      24    5772    5769      25    5778
    5775      24    5781    5775      24    5781    5778      25    5787    5784
      24    5790    5784      24    5790    5787      25    5796    5793      24
    5799    5793      24    5799    5796      25    5805    5802      24    5808
    5802      24    5808    5805      25    5814    5811      24    5817    5811
      24    5817    5814      25    5823    5820      24    5826    5820      24
    5826    5823      25    5832    5829      24    5835    5829      24    5835
    5832      25    5841    5838      24    5844    5838      24    5844    5841
      25    5850    5847      24    5853    5847      24    5853    5850      25
    5859    5856      24    5862    5856      24    5862    5859      25    5868
    5865      24    5871    5865      24    5871    5868      25    5877    5874
      24    5880    5874      24    5880    5877      25    5886    5883      24
    5889    5883      24    5889    5886      25    5895    5892      24    5898
    5892      24    5898    5895      25    5904    5901      24    5907    5901
      24    5907    5904      25    5913    5910      24    5916    5910      24
    5916    5913      25    5922    5919      24    5925    5919      24    5925
    5922      25    5931    5928      24    5934    5928      24    5934    5931
      25    5940    5937      24    5943    5937      24    5943    5940      25
    5949    5946      24    5952    5946      24    5952    5949      25    5958
    5955      24    5961    5955      24    5961    5958      25    5967    5964
      24    5970    5964      24    5970    5967      25    5976    5973      24
    5979    5973      24    5979    5976      25    5985    5982      24    5988
    5982      24    5988    5985      25    5994    5991      24    5997    5991
      24    5997    5994      25    6003    6000      24    6006    6000      24
    6006    6003      25    6012    6009      24    6015    6009      24    6015
    6012      25    6021    6018      24    6024    6018      24    6024    6021
      25    6030    6027      24    6033    6027      24    6033    6030      25
    6039    6036      24    6042    6036      24    6042    6039      25    6048
    6045      24    6051    6045      24    6051    6048      25    6057    6054
      24    6060    6054      24    6060    6057      25    6066    6063      24
    6069    6063      24    6069    6066      25    6075    6072      24    6078
    6072      24    6078    6075      25    6084    6081      24    6087    6081
      24    6087    6084      25    6093    6090      24    6096    6090      24
    6096    6093      25    6102    6099      24    6105    6099      24    6105
    6102      25    6111    6108      24    6114    6108      24    6114    6111
      25    6120    6117      24    6123    6117      24    6123    6120      25
    6129    6126      24    6132    6126      24    6132    6129      25    6138
    6135      24    6141    6135      24    6141    6138      25    6147    6144
      24    6150    6144      24    6150    6147      25    6156    6153      24
    6159    6153      24    6159    6156      25    6165    6162      24    6168
    6162      24    6168    6165      25    6174    6171      24    6177    6171
      24    6177    6174      25    6183    6180      24    6186    6180      24
    6186    6183      25    6192    6189      24    6195    6189      24    6195
    6192      25    6201    6198      24    6204    6198      24    6204    6201
      25    6210    6207      24    6213    6207      24    6213    6210      25
    6219    6216      24    6222    6216      24    6222    6219      25    6228
    6225      24    6231    6225      24    6231    6228      25    6237    6234
      24    6240    6234      24    6240    6237      25    6246    6243      24
    6249    6243      24    6249    6246      25    6255    6252      24    6258
    6252      24    6258    6255      25    6264    6261      24    6267    6261
      24    6267    6264      25    6273    6270      24    6276    6270      24
    6276    6273      25    6282    6279      24    6285    6279      24    6285
    6282      25    6291    6288      24    6294    6288      24    6294    6291
      25    6300    6297      24    6303    6297      24    6303    6300      25
    6309    6306      24    6312    6306      24    6312    6309      25    6318
    6315      24    6321    6315      24    6321    6318      25    6327    6324
      24    6330    6324      24    6330    6327      25    6336    6333      24
    6339    6333      24    6339    6336      25    6345    6342      24    6348
    6342      24    6348    6345      25    6354    6351      24    6357    6351
      24    6357    6354      25    6363    6360      24    6366    6360      24
    6366    6363      25    6372    6369      24    6375    6369      24    6375
    6372      25    6381    6378      24    6384    6378      24    6384    6381
      25    6390    6387      24    6393    6387      24    6393    6390      25
    6399    6396      24    6402    6396      24    6402    6399      25    6408
    6405      24    6411    6405      24    6411    6408      25    6417    6414
      24    6420    6414      24    6420    6417      25    6426    6423      24
    6429    6423      24    6429    6426      25    6435    6432      24    6438
    6432      24    6438    6435      25    6444    6441      24    6447    6441
      24    6447    6444      25    6453    6450      24    6456    6450      24
    6456    6453      25    6462    6459      24    6465    6459      24    6465
    6462      25    6471    6468      24    6474    6468      24    6474    6471
      25    6480    6477      24    6483    6477      24    6483    6480      25
    6489    6486      24    6492    6486      24    6492    6489      25    6498
    6495      24    6501    6495      24    6501    6498      25    6507    6504
      24    6510    6504      24    6510    6507      25    6516    6513      24
    6519    6513      24    6519    6516      25    6525    6522      24    6528
    6522      24    6528    6525      25    6534    6531      24    6537    6531
      24    6537    6534      25    6543    6540      24    6546    6540      24
    6546    6543      25    6552    6549      24    6555    6549      24    6555
    6552      25    6561    6558      24    6564    6558      24    6564    6561
      25    6570    6567      24    6573    6567      24    6573    6570      25
    6579    6576      24    6582    6576      24    6582    6579      25    6588
    6585      24    6591    6585      24    6591    6588      25    6597    6594
      24    6600    6594      24    6600    6597      25    6606    6603      24
    6609    6603      24    6609    6606      25    6615    6612      24    6618
    6612      24    6618    6615      25    6624    6621      24    6627    6621
      24    6627    6624      25    6633    6630      24    6636    6630      24
    6636    6633      25    6642    6639      24    6645    6639      24    6645
    6642      25    6651    6648      24    6654    6648      24    6654    6651
      25    6660    6657      24    6663    6657      24    6663    6660      25
    6669    6666      24    6672    6666      24    6672    6669      25    6678
    6675      24    6681    6675      24    6681    6678      25    6687    6684
      24    6690    6684      24    6690    6687      25    6696    6693      24
    6699    6693      24    6699    6696      25    6705    6702      24    6708
    6702      24    6708    6705      25    6714    6711      24    6717    6711
      24    6717    6714      25    6723    6720      24    6726    6720      24
    6726    6723      25    6732    6729      24    6735    6729      24    6735
    6732      25    6741    6738      24    6744    6738      24    6744    6741
      25    6750    6747      24    6753    6747      24    6753    6750      25
    6759    6756      24    6762    6756      24    6762    6759      25    6768
    6765      24    6771    6765      24    6771    6768      25    6777    6774
      24    6780    6774      24    6780    6777      25    6786    6783      24
    6789    6783      24    6789    6786      25    6795    6792      24    6798
    6792      24    6798    6795      25    6804    6801      24    6807    6801
      24    6807    6804      25    6813    6810      24    6816    6810      24
    6816    6813      25    6822    6819      24    6825    6819      24    6825
    6822      25    6831    6828      24    6834    6828      24    6834    6831
      25    6840    6837      24    6843    6837      24    6843    6840      25
    6849    6846      24    6852    6846      24    6852    6849      25    6858
    6855      24    6861    6855      24    6861    6858      25    6867    6864
      24    6870    6864      24    6870    6867      25    6876    6873      24
    6879    6873      24    6879    6876      25    6885    6882      24    6888
    6882      24    6888    6885      25    6894    6891      24    6897    6891
      24    6897    6894      25    6903    6900      24    6906    6900      24
    6906    6903      25    6912    6909      24    6915    6909      24    6915
    6912      25    6921    6918      24    6924    6918      24    6924    6921
      25    6930    6927      24    6933    6927      24    6933    6930      25
    6939    6936      24    6942    6936      24    6942    6939      25    6948
    6945      24    6951    6945      24    6951    6948      25    6957    6954
      24    6960    6954      24    6960    6957      25    6966    6963      24
    6969    6963      24    6969    6966      25    6975    6972      24    6978
    6972      24    6978    6975      25    6984    6981      24    6987    6981
      24    6987    6984      25    6993    6990      24    6996    6990      24
    6996    6993      25    7002    6999      24    7005    6999      24    7005
    7002      25    7011    7008      24    7014    7008      24    7014    7011
      25    7020    7017      24    7023    7017      24    7023    7020      25
    7029    7026      24    7032    7026      24    7032    7029      25    7038
    7035      24    7041    7035      24    7041    7038      25    7047    7044
      24    7050    7044      24    7050    7047      25    7056    7053      24
    7059    7053      24    7059    7056      25    7065    7062      24    7068
    7062      24    7068    7065      25    7074    7071      24    7077    7071
      24    7077    7074      25    7083    7080      24    7086    7080      24
    7086    7083      25    7092    7089      24    7095    7089      24    7095
    7092      25    7101    7098      24    7104    7098      24    7104    7101
      25    7110    7107      24    7113    7107      24    7113    7110      25
    7119    7116      24    7122    7116      24    7122    7119      25    7128
    7125      24    7131    7125      24    7131    7128      25    7137    7134
      24    7140    7134      24    7140    7137      25    7146    7143      24
    7149    7143      24    7149    7146      25    7155    7152      24    7158
    7152      24    7158    7155      25    7164    7161      24    7167    7161
      24    7167    7164      25    7173    7170      24    7176    7170      24
    7176    7173      25    7182    7179      24    7185    7179      24    7185
    7182      25    7191    7188      24    7194    7188      24    7194    7191
      25    7200    7197      24    7203    7197      24    7203    7200      25
    7209    7206      24    7212    7206      24    7212    7209      25    7218
    7215      24    7221    7215      24    7221    7218      25    7227    7224
      24    7230    7224      24    7230    7227      25    7236    7233      24
    7239    7233      24    7239    7236      25    7245    7242      24    7248
    7242      24    7248    7245      25    7254    7251      24    7257    7251
      24    7257    7254      25    7263    7260      24    7266    7260      24
    7266    7263      25    7272    7269      24    7275    7269      24    7275
    7272      25    7281    7278      24    7284    7278      24    7284    7281
      25    7290    7287      24    7293    7287      24    7293    7290      25
    7299    7296      24    7302    7296      24    7302    7299      25    7308
    7305      24    7311    7305      24    7311    7308      25    7317    7314
      24    7320    7314      24    7320    7317      25    7326    7323      24
    7329    7323      24    7329    7326      25    7335    7332      24    7338
    7332      24    7338    7335      25    7344    7341      24    7347    7341
      24    7347    7344      25    7353    7350      24    7356    7350      24
    7356    7353      25    7362    7359      24    7365    7359      24    7365
    7362      25    7371    7368      24    7374    7368      24    7374    7371
      25    7380    7377      24    7383    7377      24    7383    7380      25
    7389    7386      24    7392    7386      24    7392    7389      25    7398
    7395      24    7401    7395      24    7401    7398      25    7407    7404
      24    7410    7404      24    7410    7407      25    7416    7413      24
    7419    7413      24    7419    7416      25    7425    7422      24    7428
    7422      24    7428    7425      25    7434    7431      24    7437    7431
      24    7437    7434      25    7443    7440      24    7446    7440      24
    7446    7443      25    7452    7449      24    7455    7449      24    7455
    7452      25    7461    7458      24    7464    7458      24    7464    7461
      25    7470    7467      24    7473    7467      24    7473    7470      25
    7479    7476      24    7482    7476      24    7482    7479      25    7488
    7485      24    7491    7485      24    7491    7488      25    7497    7494
      24    7500    7494      24    7500    7497      25    7506    7503      24
    7509    7503      24    7509    7506      25    7515    7512      24    7518
    7512      24    7518    7515      25    7524    7521      24    7527    7521
      24    7527    7524      25    7533    7530      24    7536    7530      24
    7536    7533      25    7542    7539      24    7545    7539      24    7545
    7542      25    7551    7548      24    7554    7548      24    7554    7551
      25    7560    7557      24    7563    7557      24    7563    7560      25
    7569    7566      24    7572    7566      24    7572    7569      25    7578
    7575      24    7581    7575      24    7581    7578      25    7587    7584
      24    7590    7584      24    7590    7587      25    7596    7593      24
    7599    7593      24    7599    7596      25    7605    7602      24    7608
    7602      24    7608    7605      25    7614    7611      24    7617    7611
      24    7617    7614      25    7623    7620      24    7626    7620      24
    7626    7623      25    7632    7629      24    7635    7629      24    7635
    7632      25    7641    7638      24    7644    7638      24    7644    7641
      25    7650    7647      24    7653    7647      24    7653    7650      25
    7659    7656      24    7662    7656      24    7662    7659      25    7668
    7665      24    7671    7665      24    7671    7668      25    7677    7674
      24    7680    7674      24    7680    7677      25    7686    7683      24
    7689    7683      24    7689    7686      25    7695    7692      24    7698
    7692      24    7698    7695      25    7704    7701      24    7707    7701
      24    7707    7704      25    7713    7710      24    7716    7710      24
    7716    7713      25    7722    7719      24    7725    7719      24    7725
    7722      25    7731    7728      24    7734    7728      24    7734    7731
      25    7740    7737      24    7743    7737      24    7743    7740      25
    7749    7746      24    7752    7746      24    7752    7749      25    7758
    7755      24    7761    7755      24    7761    7758      25    7767    7764
      24    7770    7764      24    7770    7767      25    7776    7773      24
    7779    7773      24    7779    7776      25    7785    7782      24    7788
    7782      24    7788    7785      25    7794    7791      24    7797    7791
      24    7797    7794      25    7803    7800      24    7806    7800      24
    7806    7803      25    7812    7809      24    7815    7809      24    7815
    7812      25    7821    7818      24    7824    7818      24    7824    7821
      25    7830    7827      24    7833    7827      24    7833    7830      25
    7839    7836      24    7842    7836      24    7842    7839      25    7848
    7845      24    7851    7845      24    7851    7848      25    7857    7854
      24    7860    7854      24    7860    7857      25    7866    7863      24
    7869    7863      24    7869    7866      25    7875    7872      24    7878
    7872      24    7878    7875      25    7884    7881      24    7887    7881
      24    7887    7884      25    7893    7890      24    7896    7890      24
    7896    7893      25    7902    7899      24    7905    7899      24    7905
    7902      25    7911    7908      24    7914    7908      24    7914    7911
      25    7920    7917      24    7923    7917      24    7923    7920      25
    7929    7926      24    7932    7926      24    7932    7929      25    7938
    7935      24    7941    7935      24    7941    7938      25    7947    7944
      24    7950    7944      24    7950    7947      25    7956    7953      24
    7959    7953      24    7959    7956      25    7965    7962      24    7968
    7962      24    7968    7965      25    7974    7971      24    7977    7971
      24    7977    7974      25    7983    7980      24    7986    7980      24
    7986    7983      25    7992    7989      24    7995    7989      24    7995
    7992      25    8001    7998      24    8004    7998      24    8004    8001
      25    8010    8007      24    8013    8007      24    8013    8010      25
    8019    8016      24    8022    8016      24    8022    8019      25    8028
    8025      24    8031    8025      24    8031    8028      25    8037    8034
      24    8040    8034      24    8040    8037      25    8046    8043      24
    8049    8043      24    8049    8046      25    8055    8052      24    8058
    8052      24    8058    8055      25    8064    8061      24    8067    8061
      24    8067    8064      25    8073    8070      24    8076    8070      24
    8076    8073      25    8082    8079      24    8085    8079      24    8085
    8082      25    8091    8088      24    8094    8088      24    8094    8091
      25    8100    8097      24    8103    8097      24    8103    8100      25
    8109    8106      24    8112    8106      24    8112    8109      25    8118
    8115      24    8121    8115      24    8121    8118      25    8127    8124
      24    8130    8124      24    8130    8127      25    8136    8133      24
    8139    8133      24    8139    8136      25    8145    8142      24    8148
    8142      24    8148    8145      25    8154    8151      24    8157    8151
      24    8157    8154      25    8163    8160      24    8166    8160      24
    8166    8163      25    8172    8169      24    8175    8169      24    8175
    8172      25    8181    8178      24    8184    8178      24    8184    8181
      25    8190    8187      24    8193    8187      24    8193    8190      25
    8199    8196      24    8202    8196      24    8202    8199      25    8208
    8205      24    8211    8205      24    8211    8208      25    8217    8214
      24    8220    8214      24    8220    8217      25    8226    8223      24
    8229    8223      24    8229    8226      25    8235    8232      24    8238
    8232      24    8238    8235      25    8244    8241      24    8247    8241
      24    8247    8244      25    8253    8250      24    8256    8250      24
    8256    8253      25    8262    8259      24    8265    8259      24    8265
    8262      25    8271    8268      24    8274    8268      24    8274    8271
      25    8280    8277      24    8283    8277      24    8283    8280      25
    8289    8286      24    8292    8286      24    8292    8289      25    8298
    8295      24    8301    8295      24    8301    8298      25    8307    8304
      24    8310    8304      24    8310    8307      25    8316    8313      24
    8319    8313      24    8319    8316      25    8325    8322      24    8328
    8322      24    8328    8325      25    8334    8331      24    8337    8331
      24    8337    8334      25    8343    8340      24    8346    8340      24
    8346    8343      25    8352    8349      24    8355    8349      24    8355
    8352      25    8361    8358      24    8364    8358      24    8364    8361
      25    8370    8367      24    8373    8367      24    8373    8370      25
    8379    8376      24    8382    8376      24    8382    8379      25    8388
    8385      24    8391    8385      24    8391    8388      25    8397    8394
      24    8400    8394      24    8400    8397      25    8406    8403      24
    8409    8403      24    8409    8406      25    8415    8412      24    8418
    8412      24    8418    8415      25    8424    8421      24    8427    8421
      24    8427    8424      25    8433    8430      24    8436    8430      24
    8436    8433      25    8442    8439      24    8445    8439      24    8445
    8442      25    8451    8448      24    8454    8448      24    8454    8451
      25    8460    8457      24    8463    8457      24    8463    8460      25
    8469    8466      24    8472    8466      24    8472    8469      25    8478
    8475      24    8481    8475      24    8481    8478      25    8487    8484
      24    8490    8484      24    8490    8487      25    8496    8493      24
    8499    8493      24    8499    8496      25    8505    8502      24    8508
    8502      24    8508    8505      25    8514    8511      24    8517    8511
      24    8517    8514      25    8523    8520      24    8526    8520      24
    8526    8523      25    8532    8529      24    8535    8529      24    8535
    8532      25    8541    8538      24    8544    8538      24    8544    8541
      25    8550    8547      24    8553    8547      24    8553    8550      25
    8559    8556      24    8562    8556      24    8562    8559      25    8568
    8565      24    8571    8565      24    8571    8568      25    8577    8574
      24    8580    8574      24    8580    8577      25    8586    8583      24
    8589    8583      24    8589    8586      25    8595    8592      24    8598
    8592      24    8598    8595      25    8604    8601      24    8607    8601
      24    8607    8604      25    8613    8610      24    8616    8610      24
    8616    8613      25    8622    8619      24    8625    8619      24    8625
    8622      25    8631    8628      24    8634    8628      24    8634    8631
      25    8640    8637      24    8643    8637      24    8643    8640      25
    8649    8646      24    8652    8646      24    8652    8649      25    8658
    8655      24    8661    8655      24    8661    8658      25    8667    8664
      24    8670    8664      24    8670    8667      25    8676    8673      24
    8679    8673      24    8679    8676      25    8685    8682      24    8688
    8682      24    8688    8685      25    8694    8691      24    8697    8691
      24    8697    8694      25    8703    8700      24    8706    8700      24
    8706    8703      25    8712    8709      24    8715    8709      24    8715
    8712      25    8721    8718      24    8724    8718      24    8724    8721
      25    8730    8727      24    8733    8727      24    8733    8730      25
    8739    8736      24    8742    8736      24    8742    8739      25    8748
    8745      24    8751    8745      24    8751    8748      25    8757    8754
      24    8760    8754      24    8760    8757      25    8766    8763      24
    8769    8763      24    8769    8766      25    8775    8772      24    8778
    8772      24    8778    8775      25    8784    8781      24    8787    8781
      24    8787    8784      25    8793    8790      24    8796    8790      24
    8796    8793      25    8802    8799      24    8805    8799      24    8805
    8802      25    8811    8808      24    8814    8808      24    8814    8811
      25    8820    8817      24    8823    8817      24    8823    8820      25
    8829    8826      24    8832    8826      24    8832    8829      25    8838
    8835      24    8841    8835      24    8841    8838      25    8847    8844
      24    8850    8844      24    8850    8847      25    8856    8853      24
    8859    8853      24    8859    8856      25    8865    8862      24    8868
    8862      24    8868    8865      25    8874    8871      24    8877    8871
      24    8877    8874      25    8883    8880      24    8886    8880      24
    8886    8883      25    8892    8889      24    8895    8889      24    8895
    8892      25    8901    8898      24    8904    8898      24    8904    8901
      25    8910    8907      24    8913    8907      24    8913    8910      25
    8919    8916      24    8922    8916      24    8922    8919      25    8928
    8925      24    8931    8925      24    8931    8928      25    8937    8934
      24    8940    8934      24    8940    8937      25    8946    8943      24
    8949    8943      24    8949    8946      25    8955    8952      24    8958
    8952      24    8958    8955      25    8964    8961      24    8967    8961
      24    8967    8964      25    8973    8970      24    8976    8970      24
    8976    8973      25    8982    8979      24    8985    8979      24    8985
    8982      25    8991    8988      24    8994    8988      24    8994    8991
      25    9000    8997      24    9003    8997      24    9003    9000      25
    9009    9006      24    9012    9006      24    9012    9009      25    9018
    9015      24    9021    9015      24    9021    9018      25    9027    9024
      24    9030    9024      24    9030    9027      25    9036    9033      24
    9039    9033      24    9039    9036      25    9045    9042      24    9048
    9042      24    9048    9045      25    9054    9051      24    9057    9051
      24    9057    9054      25    9063    9060      24    9066    9060      24
    9066    9063      25    9072    9069      24    9075    9069      24    9075
    9072      25    9081    9078      24    9084    9078      24    9084    9081
      25    9090    9087      24    9093    9087      24    9093    9090      25
    9099    9096      24    9102    9096      24    9102    9099      25    9108
    9105      24    9111    9105      24    9111    9108      25    9117    9114
      24    9120    9114      24    9120    9117      25    9126    9123      24
    9129    9123      24    9129    9126      25    9135    9132      24    9138
    9132      24    9138    9135      25    9144    9141      24    9147    9141
      24    9147    9144      25    9153    9150      24    9156    9150      24
    9156    9153      25    9162    9159      24    9165    9159      24    9165
    9162      25    9171    9168      24    9174    9168      24    9174    9171
      25    9180    9177      24    9183    9177      24    9183    9180      25
    9189    9186      24    9192    9186      24    9192    9189      25    9198
    9195      24    9201    9195      24    9201    9198      25    9207    9204
      24    9210    9204      24    9210    9207      25    9216    9213      24
    9219    9213      24    9219    9216      25    9225    9222      24    9228
    9222      24    9228    9225      25    9234    9231      24    9237    9231
      24    9237    9234      25    9243    9240      24    9246    9240      24
    9246    9243      25    9252    9249      24    9255    9249      24    9255
    9252      25    9261    9258      24    9264    9258      24    9264    9261
      25    9270    9267      24    9273    9267      24    9273    9270      25
    9279    9276      24    9282    9276      24    9282    9279      25    9288
    9285      24    9291    9285      24    9291    9288      25    9297    9294
      24    9300    9294      24    9300    9297      25    9306    9303      24
    9309    9303      24    9309    9306      25    9315    9312      24    9318
    9312      24    9318    9315      25    9324    9321      24    9327    9321
      24    9327    9324      25    9333    9330      24    9336    9330      24
    9336    9333      25    9342    9339      24    9345    9339      24    9345
    9342      25    9351    9348      24    9354    9348      24    9354    9351
      25    9360    9357      24    9363    9357      24    9363    9360      25
    9369    9366      24    9372    9366      24    9372    9369      25    9378
    9375      24    9381    9375      24    9381    9378      25    9387    9384
      24    9390    9384      24    9390    9387      25    9396    9393      24
    9399    9393      24    9399    9396      25    9405    9402      24    9408
    9402      24    9408    9405      25    9414    9411      24    9417    9411
      24    9417    9414      25    9423    9420      24    9426    9420      24
    9426    9423      25    9432    9429      24    9435    9429      24    9435
    9432      25    9441    9438      24    9444    9438      24    9444    9441
      25    9450    9447      24    9453    9447      24    9453    9450      25
    9459    9456      24    9462    9456      24    9462    9459      25    9468
    9465      24    9471    9465      24    9471    9468      25    9477    9474
      24    9480    9474      24    9480    9477      25    9486    9483      24
    9489    9483      24    9489    9486      25    9495    9492      24    9498
    9492      24    9498    9495      25    9504    9501      24    9507    9501
      24    9507    9504      25    9513    9510      24    9516    9510      24
    9516    9513      25    9522    9519      24    9525    9519      24    9525
    9522      25    9531    9528      24    9534    9528      24    9534    9531
      25    9540    9537      24    9543    9537      24    9543    9540      25
    9549    9546      24    9552    9546      24    9552    9549      25    9558
    9555      24    9561    9555      24    9561    9558      25    9567    9564
      24    9570    9564      24    9570    9567      25    9576    9573      24
    9579    9573      24    9579    9576      25    9585    9582      24    9588
    9582      24    9588    9585      25    9594    9591      24    9597    9591
      24    9597    9594      25    9603    9600      24    9606    9600      24
    9606    9603      25    9612    9609      24    9615    9609      24    9615
    9612      25    9621    9618      24    9624    9618      24    9624    9621
      25    9630    9627      24    9633    9627      24    9633    9630      25
    9639    9636      24    9642    9636      24    9642    9639      25    9648
    9645      24    9651    9645      24    9651    9648      25    9657    9654
      24    9660    9654      24    9660    9657      25    9666    9663      24
    9669    9663      24    9669    9666      25    9675    9672      24    9678
    9672      24    9678    9675      25    9684    9681      24    9687    9681
      24    9687    9684      25    9693    9690      24    9696    9690      24
    9696    9693      25    9702    9699      24    9705    9699      24    9705
    9702      25    9711    9708      24    9714    9708      24    9714    9711
      25    9720    9717      24    9723    9717      24    9723    9720      25
    9729    9726      24    9732    9726      24    9732    9729      25    9738
    9735      24    9741    9735      24    9741    9738      25    9747    9744
      24    9750    9744      24    9750    9747      25    9756    9753      24
    9759    9753      24    9759    9756      25    9765    9762      24    9768
    9762      24    9768    9765      25    9774    9771      24    9777    9771
      24    9777    9774      25    9783    9780      24    9786    9780      24
    9786    9783      25    9792    9789      24    9795    9789      24    9795
    9792      25    9801    9798      24    9804    9798      24    9804    9801
      25    9810    9807      24    9813    9807      24    9813    9810      25
    9819    9816      24    9822    9816      24    9822    9819      25    9828
    9825      24    9831    9825      24    9831    9828      25    9837    9834
      24    9840    9834      24    9840    9837      25    9846    9843      24
    9849    9843      24    9849    9846      25    9855    9852      24    9858
    9852      24    9858    9855      25    9864    9861      24    9867    9861
      24    9867    9864      25    9873    9870      24    9876    9870      24
    9876    9873      25    9882    9879      24    9885    9879      24    9885
    9882      25    9891    9888      24    9894    9888      24    9894    9891
      25    9900    9897      24    9903    9897      24    9903    9900      25
    9909    9906      24    9912    9906      24    9912    9909      25    9918
    9915      24    9921    9915      24    9921    9918      25    9927    9924
      24    9930    9924      24    9930    9927      25    9936    9933      24
    9939    9933      24    9939    9936      25    9945    9942      24    9948
    9942      24    9948    9945      25    9954    9951      24    9957    9951
      24    9957    9954      25    9963    9960      24    9966    9960      24
    9966    9963      25    9972    9969      24    9975    9969      24    9975
    9972      25    9981    9978      24    9984    9978      24    9984    9981
      25    9990    9987      24    9993    9987      24    9993    9990      25
    9999    9996      24   10002    9996      24   10002    9999      25   10008
   10005      24   10011   10005      24   10011   10008      25   10017   10014
      24   10020   10014      24   10020   10017      25   10026   10023      24
   10029   10023      24   10029   10026      25   10035   10032      24   10038
   10032      24   10038   10035      25   10044   10041      24   10047   10041
      24   10047   10044      25   10053   10050      24   10056   10050      24
   10056   10053      25   10062   10059      24   10065   10059      24   10065
   10062      25   10071   10068      24   10074   10068      24   10074   10071
      25   10080   10077      24   10083   10077      24   10083   10080      25
   10089   10086      24   10092   10086      24   10092   10089      25   10098
   10095      24   10101   10095      24   10101   10098      25   10107   10104
      24   10110   10104      24   10110   10107      25   10116   10113      24
   10119   10113      24   10119   10116      25   10125   10122      24   10128
   10122      24   10128   10125      25   10134   10131      24   10137   10131
      24   10137   10134      25   10143   10140      24   10146   10140      24
   10146   10143      25   10152   10149      24   10155   10149      24   10155
   10152      25   10161   10158      24   10164   10158      24   10164   10161
      25   10170   10167      24   10173   10167      24   10173   10170      25
   10179   10176      24   10182   10176      24   10182   10179      25   10188
   10185      24   10191   10185      24   10191   10188      25   10197   10194
      24   10200   10194      24   10200   10197      25   10206   10203      24
   10209   10203      24   10209   10206      25   10215   10212      24   10218
   10212      24   10218   10215      25   10224   10221      24   10227   10221
      24   10227   10224      25   10233   10230      24   10236   10230      24
   10236   10233      25   10242   10239      24   10245   10239      24   10245
   10242      25   10251   10248      24   10254   10248      24   10254   10251
      25   10260   10257      24   10263   10257      24   10263   10260      25
   10269   10266      24   10272   10266      24   10272   10269      25   10278
   10275      24   10281   10275      24   10281   10278      25   10287   10284
      24   10290   10284      24   10290   10287      25   10296   10293      24
   10299   10293      24   10299   10296      25   10305   10302      24   10308
   10302      24   10308   10305      25   10314   10311      24   10317   10311
      24   10317   10314      25   10323   10320      24   10326   10320      24
   10326   10323      25   10332   10329      24   10335   10329      24   10335
   10332      25   10341   10338      24   10344   10338      24   10344   10341
      25   10350   10347      24   10353   10347      24   10353   10350      25
   10359   10356      24   10362   10356      24   10362   10359      25   10368
   10365      24   10371   10365      24   10371   10368      25   10377   10374
      24   10380   10374      24   10380   10377      25   10386   10383      24
   10389   10383      24   10389   10386      25   10395   10392      24   10398
   10392      24   10398   10395      25   10404   10401      24   10407   10401
      24   10407   10404      25   10413   10410      24   10416   10410      24
   10416   10413      25   10422   10419      24   10425   10419      24   10425
   10422      25   10431   10428      24   10434   10428      24   10434   10431
      25   10440   10437      24   10443   10437      24   10443   10440      25
   10449   10446      24   10452   10446      24   10452   10449      25   10458
   10455      24   10461   10455      24   10461   10458      25   10467   10464
      24   10470   10464      24   10470   10467      25   10476   10473      24
   10479   10473      24   10479   10476      25   10485   10482      24   10488
   10482      24   10488   10485      25   10494   10491      24   10497   10491
      24   10497   10494      25   10503   10500      24   10506   10500      24
   10506   10503      25   10512   10509      24   10515   10509      24   10515
   10512      25   10521   10518      24   10524   10518      24   10524   10521
      25   10530   10527      24   10533   10527      24   10533   10530      25
   10539   10536      24   10542   10536      24   10542   10539      25   10548
   10545      24   10551   10545      24   10551   10548      25   10557   10554
      24   10560   10554      24   10560   10557      25   10566   10563      24
   10569   10563      24   10569   10566      25   10575   10572      24   10578
   10572      24   10578   10575      25   10584   10581      24   10587   10581
      24   10587   10584      25   10593   10590      24   10596   10590      24
   10596   10593      25   10602   10599      24   10605   10599      24   10605
   10602      25   10611   10608      24   10614   10608      24   10614   10611
      25   10620   10617      24   10623   10617      24   10623   10620      25
   10629   10626      24   10632   10626      24   10632   10629      25   10638
   10635      24   10641   10635      24   10641   10638      25   10647   10644
      24   10650   10644      24   10650   10647      25   10656   10653      24
   10659   10653      24   10659   10656      25   10665   10662      24   10668
   10662      24   10668   10665      25   10674   10671      24   10677   10671
      24   10677   10674      25   10683   10680      24   10686   10680      24
   10686   10683      25   10692   10689      24   10695   10689      24   10695
   10692      25   10701   10698      24   10704   10698      24   10704   10701
      25   10710   10707      24   10713   10707      24   10713   10710      25
   10719   10716      24   10722   10716      24   10722   10719      25   10728
   10725      24   10731   10725      24   10731   10728      25   10737   10734
      24   10740   10734      24   10740   10737      25   10746   10743      24
   10749   10743      24   10749   10746      25   10755   10752      24   10758
   10752      24   10758   10755      25   10764   10761      24   10767   10761
      24   10767   10764      25   10773   10770      24   10776   10770      24
   10776   10773      25   10782   10779      24   10785   10779      24   10785
   10782      25   10791   10788      24   10794   10788      24   10794   10791
      25   10800   10797      24   10803   10797      24   10803   10800      25
   10809   10806      24   10812   10806      24   10812   10809      25   10818
   10815      24   10821   10815      24   10821   10818      25   10827   10824
      24   10830   10824      24   10830   10827      25   10836   10833      24
   10839   10833      24   10839   10836      25   10845   10842      24   10848
   10842      24   10848   10845      25   10854   10851      24   10857   10851
      24   10857   10854      25   10863   10860      24   10866   10860      24
   10866   10863      25   10872   10869      24   10875   10869      24   10875
   10872      25   10881   10878      24   10884   10878      24   10884   10881
      25   10890   10887      24   10893   10887      24   10893   10890      25
   10899   10896      24   10902   10896      24   10902   10899      25   10908
   10905      24   10911   10905      24   10911   10908      25   10917   10914
      24   10920   10914      24   10920   10917      25   10926   10923      24
   10929   10923      24   10929   10926      25   10935   10932      24   10938
   10932      24   10938   10935      25   10944   10941      24   10947   10941
      24   10947   10944      25   10953   10950      24   10956   10950      24
   10956   10953      25   10962   10959      24   10965   10959      24   10965
   10962      25   10971   10968      24   10974   10968      24   10974   10971
      25   10980   10977      24   10983   10977      24   10983   10980      25
   10989   10986      24   10992   10986      24   10992   10989      25   10998
   10995      24   11001   10995      24   11001   10998      25   11007   11004
      24   11010   11004      24   11010   11007      25   11016   11013      24
   11019   11013      24   11019   11016      25   11025   11022      24   11028
   11022      24   11028   11025      25   11034   11031      24   11037   11031
      24   11037   11034      25   11043   11040      24   11046   11040      24
   11046   11043      25   11052   11049      24   11055   11049      24   11055
   11052      25   11061   11058      24   11064   11058      24   11064   11061
      25   11070   11067      24   11073   11067      24   11073   11070      25
   11079   11076      24   11082   11076      24   11082   11079      25   11088
   11085      24   11091   11085      24   11091   11088      25   11097   11094
      24   11100   11094      24   11100   11097      25   11106   11103      24
   11109   11103      24   11109   11106      25   11115   11112      24   11118
   11112      24   11118   11115      25   11124   11121      24   11127   11121
      24   11127   11124      25   11133   11130      24   11136   11130      24
   11136   11133      25   11142   11139      24   11145   11139      24   11145
   11142      25   11151   11148      24   11154   11148      24   11154   11151
      25   11160   11157      24   11163   11157      24   11163   11160      25
   11169   11166      24   11172   11166      24   11172   11169      25   11178
   11175      24   11181   11175      24   11181   11178      25   11187   11184
      24   11190   11184      24   11190   11187      25   11196   11193      24
   11199   11193      24   11199   11196      25   11205   11202      24   11208
   11202      24   11208   11205      25   11214   11211      24   11217   11211
      24   11217   11214      25   11223   11220      24   11226   11220      24
   11226   11223      25   11232   11229      24   11235   11229      24   11235
   11232      25   11241   11238      24   11244   11238      24   11244   11241
      25   11250   11247      24   11253   11247      24   11253   11250      25
   11259   11256      24   11262   11256      24   11262   11259      25   11268
   11265      24   11271   11265      24   11271   11268      25   11277   11274
      24   11280   11274      24   11280   11277      25   11286   11283      24
   11289   11283      24   11289   11286      25   11295   11292      24   11298
   11292      24   11298   11295      25   11304   11301      24   11307   11301
      24   11307   11304      25   11313   11310      24   11316   11310      24
   11316   11313      25   11322   11319      24   11325   11319      24   11325
   11322      25   11331   11328      24   11334   11328      24   11334   11331
      25   11340   11337      24   11343   11337      24   11343   11340      25
   11349   11346      24   11352   11346      24   11352   11349      25   11358
   11355      24   11361   11355      24   11361   11358      25   11367   11364
      24   11370   11364      24   11370   11367      25   11376   11373      24
   11379   11373      24   11379   11376      25   11385   11382      24   11388
   11382      24   11388   11385      25   11394   11391      24   11397   11391
      24   11397   11394      25   11403   11400      24   11406   11400      24
   11406   11403      25   11412   11409      24   11415   11409      24   11415
   11412      25   11421   11418      24   11424   11418      24   11424   11421
      25   11430   11427      24   11433   11427      24   11433   11430      25
   11439   11436      24   11442   11436      24   11442   11439      25   11448
   11445      24   11451   11445      24   11451   11448      25   11457   11454
      24   11460   11454      24   11460   11457      25   11466   11463      24
   11469   11463      24   11469   11466      25   11475   11472      24   11478
   11472      24   11478   11475      25   11484   11481      24   11487   11481
      24   11487   11484      25   11493   11490      24   11496   11490      24
   11496   11493      25   11502   11499      24   11505   11499      24   11505
   11502      25   11511   11508      24   11514   11508      24   11514   11511
      25   11520   11517      24   11523   11517      24   11523   11520      25
   11529   11526      24   11532   11526      24   11532   11529      25   11538
   11535      24   11541   11535      24   11541   11538      25   11547   11544
      24   11550   11544      24   11550   11547      25   11556   11553      24
   11559   11553      24   11559   11556      25   11565   11562      24   11568
   11562      24   11568   11565      25   11574   11571      24   11577   11571
      24   11577   11574      25   11583   11580      24   11586   11580      24
   11586   11583      25   11592   11589      24   11595   11589      24   11595
   11592      25   11601   11598      24   11604   11598      24   11604   11601
      25   11610   11607      24   11613   11607      24   11613   11610      25
   11619   11616      24   11622   11616      24   11622   11619      25   11628
   11625      24   11631   11625      24   11631   11628      25   11637   11634
      24   11640   11634      24   11640   11637      25   11646   11643      24
   11649   11643      24   11649   11646      25   11655   11652      24   11658
   11652      24   11658   11655      25   11664   11661      24   11667   11661
      24   11667   11664      25   11673   11670      24   11676   11670      24
   11676   11673      25   11682   11679      24   11685   11679      24   11685
   11682      25   11691   11688      24   11694   11688      24   11694   11691
      25   11700   11697      24   11703   11697      24   11703   11700      25
   11709   11706      24   11712   11706      24   11712   11709      25   11718
   11715      24   11721   11715      24   11721   11718      25   11727   11724
      24   11730   11724      24   11730   11727      25   11736   11733      24
   11739   11733      24   11739   11736      25   11745   11742      24   11748
   11742      24   11748   11745      25   11754   11751      24   11757   11751
      24   11757   11754      25   11763   11760      24   11766   11760      24
   11766   11763      25   11772   11769      24   11775   11769      24   11775
   11772      25   11781   11778      24   11784   11778      24   11784   11781
      25   11790   11787      24   11793   11787      24   11793   11790      25
   11799   11796      24   11802   11796      24   11802   11799      25   11808
   11805      24   11811   11805      24   11811   11808      25   11817   11814
      24   11820   11814      24   11820   11817      25   11826   11823      24
   11829   11823      24   11829   11826      25   11835   11832      24   11838
   11832      24   11838   11835      25   11844   11841      24   11847   11841
      24   11847   11844      25   11853   11850      24   11856   11850      24
   11856   11853      25   11862   11859      24   11865   11859      24   11865
   11862      25   11871   11868      24   11874   11868      24   11874   11871
      25   11880   11877      24   11883   11877      24   11883   11880      25
   11889   11886      24   11892   11886      24   11892   11889      25   11898
   11895      24   11901   11895      24   11901   11898      25   11907   11904
      24   11910   11904      24   11910   11907      25   11916   11913      24
   11919   11913      24   11919   11916      25   11925   11922      24   11928
   11922      24   11928   11925      25   11934   11931      24   11937   11931
      24   11937   11934      25   11943   11940      24   11946   11940      24
   11946   11943      25   11952   11949      24   11955   11949      24   11955
   11952      25   11961   11958      24   11964   11958      24   11964   11961
      25   11970   11967      24   11973   11967      24   11973   11970      25
   11979   11976      24   11982   11976      24   11982   11979      25   11988
   11985      24   11991   11985      24   11991   11988      25   11997   11994
      24   12000   11994      24   12000   11997      25   12006   12003      24
   12009   12003      24   12009   12006      25   12015   12012      24   12018
   12012      24   12018   12015      25   12024   12021      24   12027   12021
      24   12027   12024      25   12033   12030      24   12036   12030      24
   12036   12033      25   12042   12039      24   12045   12039      24   12045
   12042      25   12051   12048      24   12054   12048      24   12054   12051
      25   12060   12057      24   12063   12057      24   12063   12060      25
   12069   12066      24   12072   12066      24   12072   12069      25   12078
   12075      24   12081   12075      24   12081   12078      25   12087   12084
      24   12090   12084      24   12090   12087      25   12096   12093      24
   12099   12093      24   12099   12096      25   12105   12102      24   12108
   12102      24   12108   12105      25   12114   12111      24   12117   12111
      24   12117   12114      25   12123   12120      24   12126   12120      24
   12126   12123      25   12132   12129      24   12135   12129      24   12135
   12132      25   12141   12138      24   12144   12138      24   12144   12141
      25   12150   12147      24   12153   12147      24   12153   12150      25
   12159   12156      24   12162   12156      24   12162   12159      25   12168
   12165      24   12171   12165      24   12171   12168      25   12177   12174
      24   12180   12174      24   12180   12177      25   12186   12183      24
   12189   12183      24   12189   12186      25   12195   12192      24   12198
   12192      24   12198   12195      25   12204   12201      24   12207   12201
      24   12207   12204      25   12213   12210      24   12216   12210      24
   12216   12213      25   12222   12219      24   12225   12219      24   12225
   12222      25   12231   12228      24   12234   12228      24   12234   12231
      25   12240   12237      24   12243   12237      24   12243   12240      25
   12249   12246      24   12252   12246      24   12252   12249      25   12258
   12255      24   12261   12255      24   12261   12258      25   12267   12264
      24   12270   12264      24   12270   12267      25   12276   12273      24
   12279   12273      24   12279   12276      25   12285   12282      24   12288
   12282      24   12288   12285      25   12294   12291      24   12297   12291
      24   12297   12294      25   12303   12300      24   12306   12300      24
   12306   12303      25   12312   12309      24   12315   12309      24   12315
   12312      25   12321   12318      24   12324   12318      24   12324   12321
      25   12330   12327      24   12333   12327      24   12333   12330      25
   12339   12336      24   12342   12336      24   12342   12339      25   12348
   12345      24   12351   12345      24   12351   12348      25   12357   12354
      24   12360   12354      24   12360   12357      25   12366   12363      24
   12369   12363      24   12369   12366      25   12375   12372      24   12378
   12372      24   12378   12375      25   12384   12381      24   12387   12381
      24   12387   12384      25   12393   12390      24   12396   12390      24
   12396   12393      25   12402   12399      24   12405   12399      24   12405
   12402      25   12411   12408      24   12414   12408      24   12414   12411
      25   12420   12417      24   12423   12417      24   12423   12420      25
   12429   12426      24   12432   12426      24   12432   12429      25   12438
   12435      24   12441   12435      24   12441   12438      25   12447   12444
      24   12450   12444      24   12450   12447      25   12456   12453      24
   12459   12453      24   12459   12456      25   12465   12462      24   12468
   12462      24   12468   12465      25   12474   12471      24   12477   12471
      24   12477   12474      25   12483   12480      24   12486   12480      24
   12486   12483      25   12492   12489      24   12495   12489      24   12495
   12492      25   12501   12498      24   12504   12498      24   12504   12501
      25   12510   12507      24   12513   12507      24   12513   12510      25
   12519   12516      24   12522   12516      24   12522   12519      25   12528
   12525      24   12531   12525      24   12531   12528      25   12537   12534
      24   12540   12534      24   12540   12537      25   12546   12543      24
   12549   12543      24   12549   12546      25   12555   12552      24   12558
   12552      24   12558   12555      25   12564   12561      24   12567   12561
      24   12567   12564      25   12573   12570      24   12576   12570      24
   12576   12573      25   12582   12579      24   12585   12579      24   12585
   12582      25   12591   12588      24   12594   12588      24   12594   12591
      25   12600   12597      24   12603   12597      24   12603   12600      25
   12609   12606      24   12612   12606      24   12612   12609      25   12618
   12615      24   12621   12615      24   12621   12618      25   12627   12624
      24   12630   12624      24   12630   12627      25   12636   12633      24
   12639   12633      24   12639   12636      25   12645   12642      24   12648
   12642      24   12648   12645      25   12654   12651      24   12657   12651
      24   12657   12654      25   12663   12660      24   12666   12660      24
   12666   12663      25   12672   12669      24   12675   12669      24   12675
   12672      25   12681   12678      24   12684   12678      24   12684   12681
      25   12690   12687      24   12693   12687      24   12693   12690      25
   12699   12696      24   12702   12696      24   12702   12699      25   12708
   12705      24   12711   12705      24   12711   12708      25   12717   12714
      24   12720   12714      24   12720   12717      25   12726   12723      24
   12729   12723      24   12729   12726      25   12735   12732      24   12738
   12732      24   12738   12735      25   12744   12741      24   12747   12741
      24   12747   12744      25   12753   12750      24   12756   12750      24
   12756   12753      25   12762   12759      24   12765   12759      24   12765
   12762      25   12771   12768      24   12774   12768      24   12774   12771
      25   12780   12777      24   12783   12777      24   12783   12780      25
   12789   12786      24   12792   12786      24   12792   12789      25   12798
   12795      24   12801   12795      24   12801   12798      25   12807   12804
      24   12810   12804      24   12810   12807      25   12816   12813      24
   12819   12813      24   12819   12816      25   12825   12822      24   12828
   12822      24   12828   12825      25   12834   12831      24   12837   12831
      24   12837   12834      25   12843   12840      24   12846   12840      24
   12846   12843      25   12852   12849      24   12855   12849      24   12855
   12852      25   12861   12858      24   12864   12858      24   12864   12861
      25   12870   12867      24   12873   12867      24   12873   12870      25
   12879   12876      24   12882   12876      24   12882   12879      25   12888
   12885      24   12891   12885      24   12891   12888      25   12897   12894
      24   12900   12894      24   12900   12897      25   12906   12903      24
   12909   12903      24   12909   12906      25   12915   12912      24   12918
   12912      24   12918   12915      25   12924   12921      24   12927   12921
      24   12927   12924      25   12933   12930      24   12936   12930      24
   12936   12933      25   12942   12939      24   12945   12939      24   12945
   12942      25   12951   12948      24   12954   12948      24   12954   12951
      25   12960   12957      24   12963   12957      24   12963   12960      25
   12969   12966      24   12972   12966      24   12972   12969      25   12978
   12975      24   12981   12975      24   12981   12978      25   12987   12984
      24   12990   12984      24   12990   12987      25   12996   12993      24
   12999   12993      24   12999   12996      25   13005   13002      24   13008
   13002      24   13008   13005      25   13014   13011      24   13017   13011
      24   13017   13014      25   13023   13020      24   13026   13020      24
   13026   13023      25   13032   13029      24   13035   13029      24   13035
   13032      25   13041   13038      24   13044   13038      24   13044   13041
      25   13050   13047      24   13053   13047      24   13053   13050      25
   13059   13056      24   13062   13056      24   13062   13059      25   13068
   13065      24   13071   13065      24   13071   13068      25   13077   13074
      24   13080   13074      24   13080   13077      25   13086   13083      24
   13089   13083      24   13089   13086      25   13095   13092      24   13098
   13092      24   13098   13095      25   13104   13101      24   13107   13101
      24   13107   13104      25   13113   13110      24   13116   13110      24
   13116   13113      25   13122   13119      24   13125   13119      24   13125
   13122      25   13131   13128      24   13134   13128      24   13134   13131
      25   13140   13137      24   13143   13137      24   13143   13140      25
   13149   13146      24   13152   13146      24   13152   13149      25   13158
   13155      24   13161   13155      24   13161   13158      25   13167   13164
      24   13170   13164      24   13170   13167      25   13176   13173      24
   13179   13173      24   13179   13176      25   13185   13182      24   13188
   13182      24   13188   13185      25   13194   13191      24   13197   13191
      24   13197   13194      25   13203   13200      24   13206   13200      24
   13206   13203      25   13212   13209      24   13215   13209      24   13215
   13212      25   13221   13218      24   13224   13218      24   13224   13221
      25   13230   13227      24   13233   13227      24   13233   13230      25
   13239   13236      24   13242   13236      24   13242   13239      25   13248
   13245      24   13251   13245      24   13251   13248      25   13257   13254
      24   13260   13254      24   13260   13257      25   13266   13263      24
   13269   13263      24   13269   13266      25   13275   13272      24   13278
   13272      24   13278   13275      25   13284   13281      24   13287   13281
      24   13287   13284      25   13293   13290      24   13296   13290      24
   13296   13293      25   13302   13299      24   13305   13299      24   13305
   13302      25   13311   13308      24   13314   13308      24   13314   13311
      25   13320   13317      24   13323   13317      24   13323   13320      25
   13329   13326      24   13332   13326      24   13332   13329      25   13338
   13335      24   13341   13335      24   13341   13338      25   13347   13344
      24   13350   13344      24   13350   13347      25   13356   13353      24
   13359   13353      24   13359   13356      25   13365   13362      24   13368
   13362      24   13368   13365      25   13374   13371      24   13377   13371
      24   13377   13374      25   13383   13380      24   13386   13380      24
   13386   13383      25   13392   13389      24   13395   13389      24   13395
   13392      25   13401   13398      24   13404   13398      24   13404   13401
      25   13410   13407      24   13413   13407      24   13413   13410      25
   13419   13416      24   13422   13416      24   13422   13419      25   13428
   13425      24   13431   13425      24   13431   13428      25   13437   13434
      24   13440   13434      24   13440   13437      25   13446   13443      24
   13449   13443      24   13449   13446      25   13455   13452      24   13458
   13452      24   13458   13455      25   13464   13461      24   13467   13461
      24   13467   13464      25   13473   13470      24   13476   13470      24
   13476   13473      25   13482   13479      24   13485   13479      24   13485
   13482      25   13491   13488      24   13494   13488      24   13494   13491
      25   13500   13497      24   13503   13497      24   13503   13500      25
   13509   13506      24   13512   13506      24   13512   13509      25   13518
   13515      24   13521   13515      24   13521   13518      25   13527   13524
      24   13530   13524      24   13530   13527      25   13536   13533      24
   13539   13533      24   13539   13536      25   13545   13542      24   13548
   13542      24   13548   13545      25   13554   13551      24   13557   13551
      24   13557   13554      25   13563   13560      24   13566   13560      24
   13566   13563      25   13572   13569      24   13575   13569      24   13575
   13572      25   13581   13578      24   13584   13578      24   13584   13581
      25   13590   13587      24   13593   13587      24   13593   13590      25
   13599   13596      24   13602   13596      24   13602   13599      25   13608
   13605      24   13611   13605      24   13611   13608      25   13617   13614
      24   13620   13614      24   13620   13617      25   13626   13623      24
   13629   13623      24   13629   13626      25   13635   13632      24   13638
   13632      24   13638   13635      25   13644   13641      24   13647   13641
      24   13647   13644      25   13653   13650      24   13656   13650      24
   13656   13653      25   13662   13659      24   13665   13659      24   13665
   13662      25   13671   13668      24   13674   13668      24   13674   13671
      25   13680   13677      24   13683   13677      24   13683   13680      25
   13689   13686      24   13692   13686      24   13692   13689      25   13698
   13695      24   13701   13695      24   13701   13698      25   13707   13704
      24   13710   13704      24   13710   13707      25   13716   13713      24
   13719   13713      24   13719   13716      25   13725   13722      24   13728
   13722      24   13728   13725      25   13734   13731      24   13737   13731
      24   13737   13734      25   13743   13740      24   13746   13740      24
   13746   13743      25   13752   13749      24   13755   13749      24   13755
   13752      25   13761   13758      24   13764   13758      24   13764   13761
      25   13770   13767      24   13773   13767      24   13773   13770      25
   13779   13776      24   13782   13776      24   13782   13779      25   13788
   13785      24   13791   13785      24   13791   13788      25   13797   13794
      24   13800   13794      24   13800   13797      25   13806   13803      24
   13809   13803      24   13809   13806      25   13815   13812      24   13818
   13812      24   13818   13815      25   13824   13821      24   13827   13821
      24   13827   13824      25   13833   13830      24   13836   13830      24
   13836   13833      25   13842   13839      24   13845   13839      24   13845
   13842      25   13851   13848      24   13854   13848      24   13854   13851
      25   13860   13857      24   13863   13857      24   13863   13860      25
   13869   13866      24   13872   13866      24   13872   13869      25   13878
   13875      24   13881   13875      24   13881   13878      25   13887   13884
      24   13890   13884      24   13890   13887      25   13896   13893      24
   13899   13893      24   13899   13896      25   13905   13902      24   13908
   13902      24   13908   13905      25   13914   13911      24   13917   13911
      24   13917   13914      25   13923   13920      24   13926   13920      24
   13926   13923      25   13932   13929      24   13935   13929      24   13935
   13932      25   13941   13938      24   13944   13938      24   13944   13941
      25   13950   13947      24   13953   13947      24   13953   13950      25
   13959   13956      24   13962   13956      24   13962   13959      25   13968
   13965      24   13971   13965      24   13971   13968      25   13977   13974
      24   13980   13974      24   13980   13977      25   13986   13983      24
   13989   13983      24   13989   13986      25   13995   13992      24   13998
   13992      24   13998   13995      25   14004   14001      24   14007   14001
      24   14007   14004      25   14013   14010      24   14016   14010      24
   14016   14013      25   14022   14019      24   14025   14019      24   14025
   14022      25   14031   14028      24   14034   14028      24   14034   14031
      25   14040   14037      24   14043   14037      24   14043   14040      25
   14049   14046      24   14052   14046      24   14052   14049      25   14058
   14055      24   14061   14055      24   14061   14058      25   14067   14064
      24   14070   14064      24   14070   14067      25   14076   14073      24
   14079   14073      24   14079   14076      25   14085   14082      24   14088
   14082      24   14088   14085      25   14094   14091      24   14097   14091
      24   14097   14094      25   14103   14100      24   14106   14100      24
   14106   14103      25   14112   14109      24   14115   14109      24   14115
   14112      25   14121   14118      24   14124   14118      24   14124   14121
      25   14130   14127      24   14133   14127      24   14133   14130      25
   14139   14136      24   14142   14136      24   14142   14139      25   14148
   14145      24   14151   14145      24   14151   14148      25   14157   14154
      24   14160   14154      24   14160   14157      25   14166   14163      24
   14169   14163      24   14169   14166      25   14175   14172      24   14178
   14172      24   14178   14175      25   14184   14181      24   14187   14181
      24   14187   14184      25   14193   14190      24   14196   14190      24
   14196   14193      25   14202   14199      24   14205   14199      24   14205
   14202      25   14211   14208      24   14214   14208      24   14214   14211
      25   14220   14217      24   14223   14217      24   14223   14220      25
   14229   14226      24   14232   14226      24   14232   14229      25   14238
   14235      24   14241   14235      24   14241   14238      25   14247   14244
      24   14250   14244      24   14250   14247      25   14256   14253      24
   14259   14253      24   14259   14256      25   14265   14262      24   14268
   14262      24   14268   14265      25   14274   14271      24   14277   14271
      24   14277   14274      25   14283   14280      24   14286   14280      24
   14286   14283      25   14292   14289      24   14295   14289      24   14295
   14292      25   14301   14298      24   14304   14298      24   14304   14301
      25   14310   14307      24   14313   14307      24   14313   14310      25
   14319   14316      24   14322   14316      24   14322   14319      25   14328
   14325      24   14331   14325      24   14331   14328      25   14337   14334
      24   14340   14334      24   14340   14337      25   14346   14343      24
   14349   14343      24   14349   14346      25   14355   14352      24   14358
   14352      24   14358   14355      25   14364   14361      24   14367   14361
      24   14367   14364      25   14373   14370      24   14376   14370      24
   14376   14373      25   14382   14379      24   14385   14379      24   14385
   14382      25   14391   14388      24   14394   14388      24   14394   14391
      25   14400   14397      24   14403   14397      24   14403   14400      25
   14409   14406      24   14412   14406      24   14412   14409      25   14418
   14415      24   14421   14415      24   14421   14418      25   14427   14424
      24   14430   14424      24   14430   14427      25   14436   14433      24
   14439   14433      24   14439   14436      25   14445   14442      24   14448
   14442      24   14448   14445      25   14454   14451      24   14457   14451
      24   14457   14454      25   14463   14460      24   14466   14460      24
   14466   14463      25   14472   14469      24   14475   14469      24   14475
   14472      25   14481   14478      24   14484   14478      24   14484   14481
      25   14490   14487      24   14493   14487      24   14493   14490      25
   14499   14496      24   14502   14496      24   14502   14499      25   14508
   14505      24   14511   14505      24   14511   14508      25   14517   14514
      24   14520   14514      24   14520   14517      25   14526   14523      24
   14529   14523      24   14529   14526      25   14535   14532      24   14538
   14532      24   14538   14535      25   14544   14541      24   14547   14541
      24   14547   14544      25   14553   14550      24   14556   14550      24
   14556   14553      25   14562   14559      24   14565   14559      24   14565
   14562      25   14571   14568      24   14574   14568      24   14574   14571
      25   14580   14577      24   14583   14577      24   14583   14580      25
   14589   14586      24   14592   14586      24   14592   14589      25   14598
   14595      24   14601   14595      24   14601   14598      25   14607   14604
      24   14610   14604      24   14610   14607      25   14616   14613      24
   14619   14613      24   14619   14616      25   14625   14622      24   14628
   14622      24   14628   14625      25   14634   14631      24   14637   14631
      24   14637   14634      25   14643   14640      24   14646   14640      24
   14646   14643      25   14652   14649      24   14655   14649      24   14655
   14652      25   14661   14658      24   14664   14658      24   14664   14661
      25   14670   14667      24   14673   14667      24   14673   14670      25
   14679   14676      24   14682   14676      24   14682   14679      25   14688
   14685      24   14691   14685      24   14691   14688      25   14697   14694
      24   14700   14694      24   14700   14697      25   14706   14703      24
   14709   14703      24   14709   14706      25   14715   14712      24   14718
   14712      24   14718   14715      25   14724   14721      24   14727   14721
      24   14727   14724      25   14733   14730      24   14736   14730      24
   14736   14733      25   14742   14739      24   14745   14739      24   14745
   14742      25   14751   14748      24   14754   14748      24   14754   14751
      25   14760   14757      24   14763   14757      24   14763   14760      25
   14769   14766      24   14772   14766      24   14772   14769      25   14778
   14775      24   14781   14775      24   14781   14778      25   14787   14784
      24   14790   14784      24   14790   14787      25   14796   14793      24
   14799   14793      24   14799   14796      25   14805   14802      24   14808
   14802      24   14808   14805      25   14814   14811      24   14817   14811
      24   14817   14814      25   14823   14820      24   14826   14820      24
   14826   14823      25   14832   14829      24   14835   14829      24   14835
   14832      25   14841   14838      24   14844   14838      24   14844   14841
      25   14850   14847      24   14853   14847      24   14853   14850      25
   14859   14856      24   14862   14856      24   14862   14859      25   14868
   14865      24   14871   14865      24   14871   14868      25   14877   14874
      24   14880   14874      24   14880   14877      25   14886   14883      24
   14889   14883      24   14889   14886      25   14895   14892      24   14898
   14892      24   14898   14895      25   14904   14901      24   14907   14901
      24   14907   14904      25   14913   14910      24   14916   14910      24
   14916   14913      25   14922   14919      24   14925   14919      24   14925
   14922      25   14931   14928      24   14934   14928      24   14934   14931
      25   14940   14937      24   14943   14937      24   14943   14940      25
   14949   14946      24   14952   14946      24   14952   14949      25   14958
   14955      24   14961   14955      24   14961   14958      25   14967   14964
      24   14970   14964      24   14970   14967      25   14976   14973      24
   14979   14973      24   14979   14976      25   14985   14982      24   14988
   14982      24   14988   14985      25   14994   14991      24   14997   14991
      24   14997   14994      25   15003   15000      24   15006   15000      24
   15006   15003      25   15012   15009      24   15015   15009      24   15015
   15012      25   15021   15018      24   15024   15018      24   15024   15021
      25   15030   15027      24   15033   15027      24   15033   15030      25
   15039   15036      24   15042   15036      24   15042   15039      25   15048
   15045      24   15051   15045      24   15051   15048      25   15057   15054
      24   15060   15054      24   15060   15057      25   15066   15063      24
   15069   15063      24   15069   15066      25   15075   15072      24   15078
   15072      24   15078   15075      25   15084   15081      24   15087   15081
      24   15087   15084      25   15093   15090      24   15096   15090      24
   15096   15093      25   15102   15099      24   15105   15099      24   15105
   15102      25   15111   15108      24   15114   15108      24   15114   15111
      25   15120   15117      24   15123   15117      24   15123   15120      25
   15129   15126      24   15132   15126      24   15132   15129      25   15138
   15135      24   15141   15135      24   15141   15138      25   15147   15144
      24   15150   15144      24   15150   15147      25   15156   15153      24
   15159   15153      24   15159   15156      25   15165   15162      24   15168
   15162      24   15168   15165      25   15174   15171      24   15177   15171
      24   15177   15174      25   15183   15180      24   15186   15180      24
   15186   15183      25   15192   15189      24   15195   15189      24   15195
   15192      25   15201   15198      24   15204   15198      24   15204   15201
      25   15210   15207      24   15213   15207      24   15213   15210      25
   15219   15216      24   15222   15216      24   15222   15219      25   15228
   15225      24   15231   15225      24   15231   15228      25   15237   15234
      24   15240   15234      24   15240   15237      25   15246   15243      24
   15249   15243      24   15249   15246      25   15255   15252      24   15258
   15252      24   15258   15255      25   15264   15261      24   15267   15261
      24   15267   15264      25   15273   15270      24   15276   15270      24
   15276   15273      25   15282   15279      24   15285   15279      24   15285
   15282      25   15291   15288      24   15294   15288      24   15294   15291
      25   15300   15297      24   15303   15297      24   15303   15300      25
   15309   15306      24   15312   15306      24   15312   15309      25   15318
   15315      24   15321   15315      24   15321   15318      25   15327   15324
      24   15330   15324      24   15330   15327      25   15336   15333      24
   15339   15333      24   15339   15336      25   15345   15342      24   15348
   15342      24   15348   15345      25   15354   15351      24   15357   15351
      24   15357   15354      25   15363   15360      24   15366   15360      24
   15366   15363      25   15372   15369      24   15375   15369      24   15375
   15372      25   15381   15378      24   15384   15378      24   15384   15381
      25   15390   15387      24   15393   15387      24   15393   15390      25
   15399   15396      24   15402   15396      24   15402   15399      25   15408
   15405      24   15411   15405      24   15411   15408      25   15417   15414
      24   15420   15414      24   15420   15417      25   15426   15423      24
   15429   15423      24   15429   15426      25   15435   15432      24   15438
   15432      24   15438   15435      25   15444   15441      24   15447   15441
      24   15447   15444      25   15453   15450      24   15456   15450      24
   15456   15453      25   15462   15459      24   15465   15459      24   15465
   15462      25   15471   15468      24   15474   15468      24   15474   15471
      25   15480   15477      24   15483   15477      24   15483   15480      25
   15489   15486      24   15492   15486      24   15492   15489      25   15498
   15495      24   15501   15495      24   15501   15498      25   15507   15504
      24   15510   15504      24   15510   15507      25   15516   15513      24
   15519   15513      24   15519   15516      25   15525   15522      24   15528
   15522      24   15528   15525      25   15534   15531      24   15537   15531
      24   15537   15534      25   15543   15540      24   15546   15540      24
   15546   15543      25   15552   15549      24   15555   15549      24   15555
   15552      25   15561   15558      24   15564   15558      24   15564   15561
      25   15570   15567      24   15573   15567      24   15573   15570      25
   15579   15576      24   15582   15576      24   15582   15579      25   15588
   15585      24   15591   15585      24   15591   15588      25   15597   15594
      24   15600   15594      24   15600   15597      25   15606   15603      24
   15609   15603      24   15609   15606      25   15615   15612      24   15618
   15612      24   15618   15615      25   15624   15621      24   15627   15621
      24   15627   15624      25   15633   15630      24   15636   15630      24
   15636   15633      25   15642   15639      24   15645   15639      24   15645
   15642      25   15651   15648      24   15654   15648      24   15654   15651
      25   15660   15657      24   15663   15657      24   15663   15660      25
   15669   15666      24   15672   15666      24   15672   15669      25   15678
   15675      24   15681   15675      24   15681   15678      25   15687   15684
      24   15690   15684      24   15690   15687      25   15696   15693      24
   15699   15693      24   15699   15696      25   15705   15702      24   15708
   15702      24   15708   15705      25   15714   15711      24   15717   15711
      24   15717   15714      25   15723   15720      24   15726   15720      24
   15726   15723      25   15732   15729      24   15735   15729      24   15735
   15732      25   15741   15738      24   15744   15738      24   15744   15741
      25   15750   15747      24   15753   15747      24   15753   15750      25
   15759   15756      24   15762   15756      24   15762   15759      25   15768
   15765      24   15771   15765      24   15771   15768      25   15777   15774
      24   15780   15774      24   15780   15777      25   15786   15783      24
   15789   15783      24   15789   15786      25   15795   15792      24   15798
   15792      24   15798   15795      25   15804   15801      24   15807   15801
      24   15807   15804      25   15813   15810      24   15816   15810      24
   15816   15813      25   15822   15819      24   15825   15819      24   15825
   15822      25   15831   15828      24   15834   15828      24   15834   15831
      25   15840   15837      24   15843   15837      24   15843   15840      25
   15849   15846      24   15852   15846      24   15852   15849      25   15858
   15855      24   15861   15855      24   15861   15858      25   15867   15864
      24   15870   15864      24   15870   15867      25   15876   15873      24
   15879   15873      24   15879   15876      25   15885   15882      24   15888
   15882      24   15888   15885      25   15894   15891      24   15897   15891
      24   15897   15894      25   15903   15900      24   15906   15900      24
   15906   15903      25   15912   15909      24   15915   15909      24   15915
   15912      25   15921   15918      24   15924   15918      24   15924   15921
      25   15930   15927      24   15933   15927      24   15933   15930      25
   15939   15936      24   15942   15936      24   15942   15939      25   15948
   15945      24   15951   15945      24   15951   15948      25   15957   15954
      24   15960   15954      24   15960   15957      25   15966   15963      24
   15969   15963      24   15969   15966      25   15975   15972      24   15978
   15972      24   15978   15975      25   15984   15981      24   15987   15981
      24   15987   15984      25   15993   15990      24   15996   15990      24
   15996   15993      25   16002   15999      24   16005   15999      24   16005
   16002      25   16011   16008      24   16014   16008      24   16014   16011
      25   16020   16017      24   16023   16017      24   16023   16020      25
   16029   16026      24   16032   16026      24   16032   16029      25   16038
   16035      24   16041   16035      24   16041   16038      25   16047   16044
      24   16050   16044      24   16050   16047      25   16056   16053      24
   16059   16053      24   16059   16056      25   16065   16062      24   16068
   16062      24   16068   16065      25   16074   16071      24   16077   16071
      24   16077   16074      25   16083   16080      24   16086   16080      24
   16086   16083      25   16092   16089      24   16095   16089      24   16095
   16092      25   16101   16098      24   16104   16098      24   16104   16101
      25   16110   16107      24   16113   16107      24   16113   16110      25
   16119   16116      24   16122   16116      24   16122   16119      25   16128
   16125      24   16131   16125      24   16131   16128      25   16137   16134
      24   16140   16134      24   16140   16137      25   16146   16143      24
   16149   16143      24   16149   16146      25   16155   16152      24   16158
   16152      24   16158   16155      25   16164   16161      24   16167   16161
      24   16167   16164      25   16173   16170      24   16176   16170      24
   16176   16173      25   16182   16179      24   16185   16179      24   16185
   16182      25   16191   16188      24   16194   16188      24   16194   16191
      25   16200   16197      24   16203   16197      24   16203   16200      25
   16209   16206      24   16212   16206      24   16212   16209      25   16218
   16215      24   16221   16215      24   16221   16218      25   16227   16224
      24   16230   16224      24   16230   16227      25   16236   16233      24
   16239   16233      24   16239   16236      25   16245   16242      24   16248
   16242      24   16248   16245      25   16254   16251      24   16257   16251
      24   16257   16254      25   16263   16260      24   16266   16260      24
   16266   16263      25   16272   16269      24   16275   16269      24   16275
   16272      25   16281   16278      24   16284   16278      24   16284   16281
      25   16290   16287      24   16293   16287      24   16293   16290      25
   16299   16296      24   16302   16296      24   16302   16299      25   16308
   16305      24   16311   16305      24   16311   16308      25   16317   16314
      24   16320   16314      24   16320   16317      25   16326   16323      24
   16329   16323      24   16329   16326      25   16335   16332      24   16338
   16332      24   16338   16335      25   16344   16341      24   16347   16341
      24   16347   16344      25   16353   16350      24   16356   16350      24
   16356   16353      25   16362   16359      24   16365   16359      24   16365
   16362      25   16371   16368      24   16374   16368      24   16374   16371
      25   16380   16377      24   16383   16377      24   16383   16380      25
   16389   16386      24   16392   16386      24   16392   16389      25   16398
   16395      24   16401   16395      24   16401   16398      25   16407   16404
      24   16410   16404      24   16410   16407      25   16416   16413      24
   16419   16413      24   16419   16416      25   16425   16422      24   16428
   16422      24   16428   16425      25   16434   16431      24   16437   16431
      24   16437   16434      25   16443   16440      24   16446   16440      24
   16446   16443      25   16452   16449      24   16455   16449      24   16455
   16452      25   16461   16458      24   16464   16458      24   16464   16461
      25   16470   16467      24   16473   16467      24   16473   16470      25
   16479   16476      24   16482   16476      24   16482   16479      25   16488
   16485      24   16491   16485      24   16491   16488      25   16497   16494
      24   16500   16494      24   16500   16497      25   16506   16503      24
   16509   16503      24   16509   16506      25   16515   16512      24   16518
   16512      24   16518   16515      25   16524   16521      24   16527   16521
      24   16527   16524      25   16533   16530      24   16536   16530      24
   16536   16533      25   16542   16539      24   16545   16539      24   16545
   16542      25   16551   16548      24   16554   16548      24   16554   16551
      25   16560   16557      24   16563   16557      24   16563   16560      25
   16569   16566      24   16572   16566      24   16572   16569      25   16578
   16575      24   16581   16575      24   16581   16578      25   16587   16584
      24   16590   16584      24   16590   16587      25   16596   16593      24
   16599   16593      24   16599   16596      25   16605   16602      24   16608
   16602      24   16608   16605      25   16614   16611      24   16617   16611
      24   16617   16614      25   16623   16620      24   16626   16620      24
   16626   16623      25   16632   16629      24   16635   16629      24   16635
   16632      25   16641   16638      24   16644   16638      24   16644   16641
      25   16650   16647      24   16653   16647      24   16653   16650      25
   16659   16656      24   16662   16656      24   16662   16659      25   16668
   16665      24   16671   16665      24   16671   16668      25   16677   16674
      24   16680   16674      24   16680   16677      25   16686   16683      24
   16689   16683      24   16689   16686      25   16695   16692      24   16698
   16692      24   16698   16695      25   16704   16701      24   16707   16701
      24   16707   16704      25   16713   16710      24   16716   16710      24
   16716   16713      25   16722   16719      24   16725   16719      24   16725
   16722      25   16731   16728      24   16734   16728      24   16734   16731
      25   16740   16737      24   16743   16737      24   16743   16740      25
   16749   16746      24   16752   16746      24   16752   16749      25   16758
   16755      24   16761   16755      24   16761   16758      25   16767   16764
      24   16770   16764      24   16770   16767      25   16776   16773      24
   16779   16773      24   16779   16776      25   16785   16782      24   16788
   16782      24   16788   16785      25   16794   16791      24   16797   16791
      24   16797   16794      25   16803   16800      24   16806   16800      24
   16806   16803      25   16812   16809      24   16815   16809      24   16815
   16812      25   16821   16818      24   16824   16818      24   16824   16821
      25   16830   16827      24   16833   16827      24   16833   16830      25
   16839   16836      24   16842   16836      24   16842   16839      25   16848
   16845      24   16851   16845      24   16851   16848      25   16857   16854
      24   16860   16854      24   16860   16857      25   16866   16863      24
   16869   16863      24   16869   16866      25   16875   16872      24   16878
   16872      24   16878   16875      25   16884   16881      24   16887   16881
      24   16887   16884      25   16893   16890      24   16896   16890      24
   16896   16893      25   16902   16899      24   16905   16899      24   16905
   16902      25   16911   16908      24   16914   16908      24   16914   16911
      25   16920   16917      24   16923   16917      24   16923   16920      25
   16929   16926      24   16932   16926      24   16932   16929      25   16938
   16935      24   16941   16935      24   16941   16938      25   16947   16944
      24   16950   16944      24   16950   16947      25   16956   16953      24
   16959   16953      24   16959   16956      25   16965   16962      24   16968
   16962      24   16968   16965      25   16974   16971      24   16977   16971
      24   16977   16974      25   16983   16980      24   16986   16980      24
   16986   16983      25   16992   16989      24   16995   16989      24   16995
   16992      25   17001   16998      24   17004   16998      24   17004   17001
      25   17010   17007      24   17013   17007      24   17013   17010      25
   17019   17016      24   17022   17016      24   17022   17019      25   17028
   17025      24   17031   17025      24   17031   17028      25   17037   17034
      24   17040   17034      24   17040   17037      25   17046   17043      24
   17049   17043      24   17049   17046      25   17055   17052      24   17058
   17052      24   17058   17055      25   17064   17061      24   17067   17061
      24   17067   17064      25   17073   17070      24   17076   17070      24
   17076   17073      25   17082   17079      24   17085   17079      24   17085
   17082      25   17091   17088      24   17094   17088      24   17094   17091
      25   17100   17097      24   17103   17097      24   17103   17100      25
   17109   17106      24   17112   17106      24   17112   17109      25   17118
   17115      24   17121   17115      24   17121   17118      25   17127   17124
      24   17130   17124      24   17130   17127      25   17136   17133      24
   17139   17133      24   17139   17136      25   17145   17142      24   17148
   17142      24   17148   17145      25   17154   17151      24   17157   17151
      24   17157   17154      25   17163   17160      24   17166   17160      24
   17166   17163      25   17172   17169      24   17175   17169      24   17175
   17172      25   17181   17178      24   17184   17178      24   17184   17181
      25   17190   17187      24   17193   17187      24   17193   17190      25
   17199   17196      24   17202   17196      24   17202   17199      25   17208
   17205      24   17211   17205      24   17211   17208      25   17217   17214
      24   17220   17214      24   17220   17217      25   17226   17223      24
   17229   17223      24   17229   17226      25   17235   17232      24   17238
   17232      24   17238   17235      25   17244   17241      24   17247   17241
      24   17247   17244      25   17253   17250      24   17256   17250      24
   17256   17253      25   17262   17259      24   17265   17259      24   17265
   17262      25   17271   17268      24   17274   17268      24   17274   17271
      25   17280   17277      24   17283   17277      24   17283   17280      25
   17289   17286      24   17292   17286      24   17292   17289      25   17298
   17295      24   17301   17295      24   17301   17298      25   17307   17304
      24   17310   17304      24   17310   17307      25   17316   17313      24
   17319   17313      24   17319   17316      25   17325   17322      24   17328
   17322      24   17328   17325      25   17334   17331      24   17337   17331
      24   17337   17334      25   17343   17340      24   17346   17340      24
   17346   17343      25   17352   17349      24   17355   17349      24   17355
   17352      25   17361   17358      24   17364   17358      24   17364   17361
      25   17370   17367      24   17373   17367      24   17373   17370      25
   17379   17376      24   17382   17376      24   17382   17379      25   17388
   17385      24   17391   17385      24   17391   17388      25   17397   17394
      24   17400   17394      24   17400   17397      25   17406   17403      24
   17409   17403      24   17409   17406      25   17415   17412      24   17418
   17412      24   17418   17415      25   17424   17421      24   17427   17421
      24   17427   17424      25   17433   17430      24   17436   17430      24
   17436   17433      25   17442   17439      24   17445   17439      24   17445
   17442      25   17451   17448      24   17454   17448      24   17454   17451
      25   17460   17457      24   17463   17457      24   17463   17460      25
   17469   17466      24   17472   17466      24   17472   17469      25   17478
   17475      24   17481   17475      24   17481   17478      25   17487   17484
      24   17490   17484      24   17490   17487      25   17496   17493      24
   17499   17493      24   17499   17496      25   17505   17502      24   17508
   17502      24   17508   17505      25   17514   17511      24   17517   17511
      24   17517   17514      25   17523   17520      24   17526   17520      24
   17526   17523      25   17532   17529      24   17535   17529      24   17535
   17532      25   17541   17538      24   17544   17538      24   17544   17541
      25   17550   17547      24   17553   17547      24   17553   17550      25
   17559   17556      24   17562   17556      24   17562   17559      25   17568
   17565      24   17571   17565      24   17571   17568      25   17577   17574
      24   17580   17574      24   17580   17577      25   17586   17583      24
   17589   17583      24   17589   17586      25   17595   17592      24   17598
   17592      24   17598   17595      25   17604   17601      24   17607   17601
      24   17607   17604      25   17613   17610      24   17616   17610      24
   17616   17613      25   17622   17619      24   17625   17619      24   17625
   17622      25   17631   17628      24   17634   17628      24   17634   17631
      25   17640   17637      24   17643   17637      24   17643   17640      25
   17649   17646      24   17652   17646      24   17652   17649      25   17658
   17655      24   17661   17655      24   17661   17658      25   17667   17664
      24   17670   17664      24   17670   17667      25   17676   17673      24
   17679   17673      24   17679   17676      25   17685   17682      24   17688
   17682      24   17688   17685      25   17694   17691      24   17697   17691
      24   17697   17694      25   17703   17700      24   17706   17700      24
   17706   17703      25   17712   17709      24   17715   17709      24   17715
   17712      25   17721   17718      24   17724   17718      24   17724   17721
      25   17730   17727      24   17733   17727      24   17733   17730      25
   17739   17736      24   17742   17736      24   17742   17739      25   17748
   17745      24   17751   17745      24   17751   17748      25   17757   17754
      24   17760   17754      24   17760   17757      25   17766   17763      24
   17769   17763      24   17769   17766      25   17775   17772      24   17778
   17772      24   17778   17775      25   17784   17781      24   17787   17781
      24   17787   17784      25   17793   17790      24   17796   17790      24
   17796   17793      25   17802   17799      24   17805   17799      24   17805
   17802      25   17811   17808      24   17814   17808      24   17814   17811
      25   17820   17817      24   17823   17817      24   17823   17820      25
   17829   17826      24   17832   17826      24   17832   17829      25   17838
   17835      24   17841   17835      24   17841   17838      25   17847   17844
      24   17850   17844      24   17850   17847      25   17856   17853      24
   17859   17853      24   17859   17856      25   17865   17862      24   17868
   17862      24   17868   17865      25   17874   17871      24   17877   17871
      24   17877   17874      25   17883   17880      24   17886   17880      24
   17886   17883      25   17892   17889      24   17895   17889      24   17895
   17892      25   17901   17898      24   17904   17898      24   17904   17901
      25   17910   17907      24   17913   17907      24   17913   17910      25
   17919   17916      24   17922   17916      24   17922   17919      25   17928
   17925      24   17931   17925      24   17931   17928      25   17937   17934
      24   17940   17934      24   17940   17937      25   17946   17943      24
   17949   17943      24   17949   17946      25   17955   17952      24   17958
   17952      24   17958   17955      25   17964   17961      24   17967   17961
      24   17967   17964      25   17973   17970      24   17976   17970      24
   17976   17973      25   17982   17979      24   17985   17979      24   17985
   17982      25   17991   17988      24   17994   17988      24   17994   17991
      25   18000   17997      24   18003   17997      24   18003   18000      25
   18009   18006      24   18012   18006      24   18012   18009      25   18018
   18015      24   18021   18015      24   18021   18018      25   18027   18024
      24   18030   18024      24   18030   18027      25   18036   18033      24
   18039   18033      24   18039   18036      25   18045   18042      24   18048
   18042      24   18048   18045      25   18054   18051      24   18057   18051
      24   18057   18054      25   18063   18060      24   18066   18060      24
   18066   18063      25   18072   18069      24   18075   18069      24   18075
   18072      25   18081   18078      24   18084   18078      24   18084   18081
      25   18090   18087      24   18093   18087      24   18093   18090      25
   18099   18096      24   18102   18096      24   18102   18099      25   18108
   18105      24   18111   18105      24   18111   18108      25   18117   18114
      24   18120   18114      24   18120   18117      25   18126   18123      24
   18129   18123      24   18129   18126      25   18135   18132      24   18138
   18132      24   18138   18135      25   18144   18141      24   18147   18141
      24   18147   18144      25   18153   18150      24   18156   18150      24
   18156   18153      25   18162   18159      24   18165   18159      24   18165
   18162      25   18171   18168      24   18174   18168      24   18174   18171
      25   18180   18177      24   18183   18177      24   18183   18180      25
   18189   18186      24   18192   18186      24   18192   18189      25   18198
   18195      24   18201   18195      24   18201   18198      25   18207   18204
      24   18210   18204      24   18210   18207      25   18216   18213      24
   18219   18213      24   18219   18216      25   18225   18222      24   18228
   18222      24   18228   18225      25   18234   18231      24   18237   18231
      24   18237   18234      25   18243   18240      24   18246   18240      24
   18246   18243      25   18252   18249      24   18255   18249      24   18255
   18252      25   18261   18258      24   18264   18258      24   18264   18261
      25   18270   18267      24   18273   18267      24   18273   18270      25
   18279   18276      24   18282   18276      24   18282   18279      25   18288
   18285      24   18291   18285      24   18291   18288      25   18297   18294
      24   18300   18294      24   18300   18297      25   18306   18303      24
   18309   18303      24   18309   18306      25   18315   18312      24   18318
   18312      24   18318   18315      25   18324   18321      24   18327   18321
      24   18327   18324      25   18333   18330      24   18336   18330      24
   18336   18333      25   18342   18339      24   18345   18339      24   18345
   18342      25   18351   18348      24   18354   18348      24   18354   18351
      25   18360   18357      24   18363   18357      24   18363   18360      25
   18369   18366      24   18372   18366      24   18372   18369      25   18378
   18375      24   18381   18375      24   18381   18378      25   18387   18384
      24   18390   18384      24   18390   18387      25   18396   18393      24
   18399   18393      24   18399   18396      25   18405   18402      24   18408
   18402      24   18408   18405      25   18414   18411      24   18417   18411
      24   18417   18414      25   18423   18420      24   18426   18420      24
   18426   18423      25   18432   18429      24   18435   18429      24   18435
   18432      25   18441   18438      24   18444   18438      24   18444   18441
      25   18450   18447      24   18453   18447      24   18453   18450      25
   18459   18456      24   18462   18456      24   18462   18459      25   18468
   18465      24   18471   18465      24   18471   18468      25   18477   18474
      24   18480   18474      24   18480   18477      25   18486   18483      24
   18489   18483      24   18489   18486      25   18495   18492      24   18498
   18492      24   18498   18495      25   18504   18501      24   18507   18501
      24   18507   18504      25   18513   18510      24   18516   18510      24
   18516   18513      25   18522   18519      24   18525   18519      24   18525
   18522      25   18531   18528      24   18534   18528      24   18534   18531
      25   18540   18537      24   18543   18537      24   18543   18540      25
   18549   18546      24   18552   18546      24   18552   18549      25   18558
   18555      24   18561   18555      24   18561   18558      25   18567   18564
      24   18570   18564      24   18570   18567      25   18576   18573      24
   18579   18573      24   18579   18576      25   18585   18582      24   18588
   18582      24   18588   18585      25   18594   18591      24   18597   18591
      24   18597   18594      25   18603   18600      24   18606   18600      24
   18606   18603      25   18612   18609      24   18615   18609      24   18615
   18612      25   18621   18618      24   18624   18618      24   18624   18621
      25   18630   18627      24   18633   18627      24   18633   18630      25
   18639   18636      24   18642   18636      24   18642   18639      25   18648
   18645      24   18651   18645      24   18651   18648      25   18657   18654
      24   18660   18654      24   18660   18657      25   18666   18663      24
   18669   18663      24   18669   18666      25   18675   18672      24   18678
   18672      24   18678   18675      25   18684   18681      24   18687   18681
      24   18687   18684      25   18693   18690      24   18696   18690      24
   18696   18693      25   18702   18699      24   18705   18699      24   18705
   18702      25   18711   18708      24   18714   18708      24   18714   18711
      25   18720   18717      24   18723   18717      24   18723   18720      25
   18729   18726      24   18732   18726      24   18732   18729      25   18738
   18735      24   18741   18735      24   18741   18738      25   18747   18744
      24   18750   18744      24   18750   18747      25   18756   18753      24
   18759   18753      24   18759   18756      25   18765   18762      24   18768
   18762      24   18768   18765      25   18774   18771      24   18777   18771
      24   18777   18774      25   18783   18780      24   18786   18780      24
   18786   18783      25   18792   18789      24   18795   18789      24   18795
   18792      25   18801   18798      24   18804   18798      24   18804   18801
      25   18810   18807      24   18813   18807      24   18813   18810      25
   18819   18816      24   18822   18816      24   18822   18819      25   18828
   18825      24   18831   18825      24   18831   18828      25   18837   18834
      24   18840   18834      24   18840   18837      25   18846   18843      24
   18849   18843      24   18849   18846      25   18855   18852      24   18858
   18852      24   18858   18855      25   18864   18861      24   18867   18861
      24   18867   18864      25   18873   18870      24   18876   18870      24
   18876   18873      25   18882   18879      24   18885   18879      24   18885
   18882      25   18891   18888      24   18894   18888      24   18894   18891
      25   18900   18897      24   18903   18897      24   18903   18900      25
   18909   18906      24   18912   18906      24   18912   18909      25   18918
   18915      24   18921   18915      24   18921   18918      25   18927   18924
      24   18930   18924      24   18930   18927      25   18936   18933      24
   18939   18933      24   18939   18936      25   18945   18942      24   18948
   18942      24   18948   18945      25   18954   18951      24   18957   18951
      24   18957   18954      25   18963   18960      24   18966   18960      24
   18966   18963      25   18972   18969      24   18975   18969      24   18975
   18972      25   18981   18978      24   18984   18978      24   18984   18981
      25   18990   18987      24   18993   18987      24   18993   18990      25
   18999   18996      24   19002   18996      24   19002   18999      25   19008
   19005      24   19011   19005      24   19011   19008      25   19017   19014
      24   19020   19014      24   19020   19017      25   19026   19023      24
   19029   19023      24   19029   19026      25   19035   19032      24   19038
   19032      24   19038   19035      25   19044   19041      24   19047   19041
      24   19047   19044      25   19053   19050      24   19056   19050      24
   19056   19053      25   19062   19059      24   19065   19059      24   19065
   19062      25   19071   19068      24   19074   19068      24   19074   19071
      25   19080   19077      24   19083   19077      24   19083   19080      25
   19089   19086      24   19092   19086      24   19092   19089      25   19098
   19095      24   19101   19095      24   19101   19098      25   19107   19104
      24   19110   19104      24   19110   19107      25   19116   19113      24
   19119   19113      24   19119   19116      25   19125   19122      24   19128
   19122      24   19128   19125      25   19134   19131      24   19137   19131
      24   19137   19134      25   19143   19140      24   19146   19140      24
   19146   19143      25   19152   19149      24   19155   19149      24   19155
   19152      25   19161   19158      24   19164   19158      24   19164   19161
      25   19170   19167      24   19173   19167      24   19173   19170      25
   19179   19176      24   19182   19176      24   19182   19179      25   19188
   19185      24   19191   19185      24   19191   19188      25   19197   19194
      24   19200   19194      24   19200   19197      25   19206   19203      24
   19209   19203      24   19209   19206      25   19215   19212      24   19218
   19212      24   19218   19215      25   19224   19221      24   19227   19221
      24   19227   19224      25   19233   19230      24   19236   19230      24
   19236   19233      25   19242   19239      24   19245   19239      24   19245
   19242      25   19251   19248      24   19254   19248      24   19254   19251
      25   19260   19257      24   19263   19257      24   19263   19260      25
   19269   19266      24   19272   19266      24   19272   19269      25   19278
   19275      24   19281   19275      24   19281   19278      25   19287   19284
      24   19290   19284      24   19290   19287      25   19296   19293      24
   19299   19293      24   19299   19296      25   19305   19302      24   19308
   19302      24   19308   19305      25   19314   19311      24   19317   19311
      24   19317   19314      25   19323   19320      24   19326   19320      24
   19326   19323      25   19332   19329      24   19335   19329      24   19335
   19332      25   19341   19338      24   19344   19338      24   19344   19341
      25   19350   19347      24   19353   19347      24   19353   19350      25
   19359   19356      24   19362   19356      24   19362   19359      25   19368
   19365      24   19371   19365      24   19371   19368      25   19377   19374
      24   19380   19374      24   19380   19377      25   19386   19383      24
   19389   19383      24   19389   19386      25   19395   19392      24   19398
   19392      24   19398   19395      25   19404   19401      24   19407   19401
      24   19407   19404      25   19413   19410      24   19416   19410      24
   19416   19413      25   19422   19419      24   19425   19419      24   19425
   19422      25   19431   19428      24   19434   19428      24   19434   19431
      25   19440   19437      24   19443   19437      24   19443   19440      25
   19449   19446      24   19452   19446      24   19452   19449      25   19458
   19455      24   19461   19455      24   19461   19458      25   19467   19464
      24   19470   19464      24   19470   19467      25   19476   19473      24
   19479   19473      24   19479   19476      25   19485   19482      24   19488
   19482      24   19488   19485      25   19494   19491      24   19497   19491
      24   19497   19494      25   19503   19500      24   19506   19500      24
   19506   19503      25   19512   19509      24   19515   19509      24   19515
   19512      25   19521   19518      24   19524   19518      24   19524   19521
      25   19530   19527      24   19533   19527      24   19533   19530      25
   19539   19536      24   19542   19536      24   19542   19539      25   19548
   19545      24   19551   19545      24   19551   19548      25   19557   19554
      24   19560   19554      24   19560   19557      25   19566   19563      24
   19569   19563      24   19569   19566      25   19575   19572      24   19578
   19572      24   19578   19575      25   19584   19581      24   19587   19581
      24   19587   19584      25   19593   19590      24   19596   19590      24
   19596   19593      25   19602   19599      24   19605   19599      24   19605
   19602      25   19611   19608      24   19614   19608      24   19614   19611
      25   19620   19617      24   19623   19617      24   19623   19620      25
   19629   19626      24   19632   19626      24   19632   19629      25   19638
   19635      24   19641   19635      24   19641   19638      25   19647   19644
      24   19650   19644      24   19650   19647      25   19656   19653      24
   19659   19653      24   19659   19656      25   19665   19662      24   19668
   19662      24   19668   19665      25   19674   19671      24   19677   19671
      24   19677   19674      25   19683   19680      24   19686   19680      24
   19686   19683      25   19692   19689      24   19695   19689      24   19695
   19692      25   19701   19698      24   19704   19698      24   19704   19701
      25   19710   19707      24   19713   19707      24   19713   19710      25
   19719   19716      24   19722   19716      24   19722   19719      25   19728
   19725      24   19731   19725      24   19731   19728      25   19737   19734
      24   19740   19734      24   19740   19737      25   19746   19743      24
   19749   19743      24   19749   19746      25   19755   19752      24   19758
   19752      24   19758   19755      25   19764   19761      24   19767   19761
      24   19767   19764      25   19773   19770      24   19776   19770      24
   19776   19773      25   19782   19779      24   19785   19779      24   19785
   19782      25   19791   19788      24   19794   19788      24   19794   19791
      25   19800   19797      24   19803   19797      24   19803   19800      25
   19809   19806      24   19812   19806      24   19812   19809      25   19818
   19815      24   19821   19815      24   19821   19818      25   19827   19824
      24   19830   19824      24   19830   19827      25   19836   19833      24
   19839   19833      24   19839   19836      25   19845   19842      24   19848
   19842      24   19848   19845      25   19854   19851      24   19857   19851
      24   19857   19854      25   19863   19860      24   19866   19860      24
   19866   19863      25   19872   19869      24   19875   19869      24   19875
   19872      25   19881   19878      24   19884   19878      24   19884   19881
      25   19890   19887      24   19893   19887      24   19893   19890      25
   19899   19896      24   19902   19896      24   19902   19899      25   19908
   19905      24   19911   19905      24   19911   19908      25   19917   19914
      24   19920   19914      24   19920   19917      25   19926   19923      24
   19929   19923      24   19929   19926      25   19935   19932      24   19938
   19932      24   19938   19935      25   19944   19941      24   19947   19941
      24   19947   19944      25   19953   19950      24   19956   19950      24
   19956   19953      25   19962   19959      24   19965   19959      24   19965
   19962      25   19971   19968      24   19974   19968      24   19974   19971
      25   19980   19977      24   19983   19977      24   19983   19980      25
   19989   19986      24   19992   19986      24   19992   19989      25   19998
   19995      24   20001   19995      24   20001   19998      25   20007   20004
      24   20010   20004      24   20010   20007      25   20016   20013      24
   20019   20013      24   20019   20016      25   20025   20022      24   20028
   20022      24   20028   20025      25   20034   20031      24   20037   20031
      24   20037   20034      25   20043   20040      24   20046   20040      24
   20046   20043      25   20052   20049      24   20055   20049      24   20055
   20052      25   20061   20058      24   20064   20058      24   20064   20061
      25   20070   20067      24   20073   20067      24   20073   20070      25
   20079   20076      24   20082   20076      24   20082   20079      25   20088
   20085      24   20091   20085      24   20091   20088      25   20097   20094
      24   20100   20094      24   20100   20097      25   20106   20103      24
   20109   20103      24   20109   20106      25   20115   20112      24   20118
   20112      24   20118   20115      25   20124   20121      24   20127   20121
      24   20127   20124      25   20133   20130      24   20136   20130      24
   20136   20133      25   20142   20139      24   20145   20139      24   20145
   20142      25   20151   20148      24   20154   20148      24   20154   20151
      25   20160   20157      24   20163   20157      24   20163   20160      25
   20169   20166      24   20172   20166      24   20172   20169      25   20178
   20175      24   20181   20175      24   20181   20178      25   20187   20184
      24   20190   20184      24   20190   20187      25   20196   20193      24
   20199   20193      24   20199   20196      25   20205   20202      24   20208
   20202      24   20208   20205      25   20214   20211      24   20217   20211
      24   20217   20214      25   20223   20220      24   20226   20220      24
   20226   20223      25   20232   20229      24   20235   20229      24   20235
   20232      25   20241   20238      24   20244   20238      24   20244   20241
      25   20250   20247      24   20253   20247      24   20253   20250      25
   20259   20256      24   20262   20256      24   20262   20259      25   20268
   20265      24   20271   20265      24   20271   20268      25   20277   20274
      24   20280   20274      24   20280   20277      25   20286   20283      24
   20289   20283      24   20289   20286      25   20295   20292      24   20298
   20292      24   20298   20295      25   20304   20301      24   20307   20301
      24   20307   20304      25   20313   20310      24   20316   20310      24
   20316   20313      25   20322   20319      24   20325   20319      24   20325
   20322      25   20331   20328      24   20334   20328      24   20334   20331
      25   20340   20337      24   20343   20337      24   20343   20340      25
   20349   20346      24   20352   20346      24   20352   20349      25   20358
   20355      24   20361   20355      24   20361   20358      25   20367   20364
      24   20370   20364      24   20370   20367      25   20376   20373      24
   20379   20373      24   20379   20376      25   20385   20382      24   20388
   20382      24   20388   20385      25   20394   20391      24   20397   20391
      24   20397   20394      25   20403   20400      24   20406   20400      24
   20406   20403      25   20412   20409      24   20415   20409      24   20415
   20412      25   20421   20418      24   20424   20418      24   20424   20421
      25   20430   20427      24   20433   20427      24   20433   20430      25
   20439   20436      24   20442   20436      24   20442   20439      25   20448
   20445      24   20451   20445      24   20451   20448      25   20457   20454
      24   20460   20454      24   20460   20457      25   20466   20463      24
   20469   20463      24   20469   20466      25   20475   20472      24   20478
   20472      24   20478   20475      25   20484   20481      24   20487   20481
      24   20487   20484      25   20493   20490      24   20496   20490      24
   20496   20493      25   20502   20499      24   20505   20499      24   20505
   20502      25   20511   20508      24   20514   20508      24   20514   20511
      25   20520   20517      24   20523   20517      24   20523   20520      25
   20529   20526      24   20532   20526      24   20532   20529      25   20538
   20535      24   20541   20535      24   20541   20538      25   20547   20544
      24   20550   20544      24   20550   20547      25   20556   20553      24
   20559   20553      24   20559   20556      25   20565   20562      24   20568
   20562      24   20568   20565      25   20574   20571      24   20577   20571
      24   20577   20574      25   20583   20580      24   20586   20580      24
   20586   20583      25   20592   20589      24   20595   20589      24   20595
   20592      25   20601   20598      24   20604   20598      24   20604   20601
      25   20610   20607      24   20613   20607      24   20613   20610      25
   20619   20616      24   20622   20616      24   20622   20619      25   20628
   20625      24   20631   20625      24   20631   20628      25   20637   20634
      24   20640   20634      24   20640   20637      25   20646   20643      24
   20649   20643      24   20649   20646      25   20655   20652      24   20658
   20652      24   20658   20655      25   20664   20661      24   20667   20661
      24   20667   20664      25   20673   20670      24   20676   20670      24
   20676   20673      25   20682   20679      24   20685   20679      24   20685
   20682      25   20691   20688      24   20694   20688      24   20694   20691
      25   20700   20697      24   20703   20697      24   20703   20700      25
   20709   20706      24   20712   20706      24   20712   20709      25   20718
   20715      24   20721   20715      24   20721   20718      25   20727   20724
      24   20730   20724      24   20730   20727      25   20736   20733      24
   20739   20733      24   20739   20736      25   20745   20742      24   20748
   20742      24   20748   20745      25   20754   20751      24   20757   20751
      24   20757   20754      25   20763   20760      24   20766   20760      24
   20766   20763      25   20772   20769      24   20775   20769      24   20775
   20772      25   20781   20778      24   20784   20778      24   20784   20781
      25   20790   20787      24   20793   20787      24   20793   20790      25
   20799   20796      24   20802   20796      24   20802   20799      25   20808
   20805      24   20811   20805      24   20811   20808      25   20817   20814
      24   20820   20814      24   20820   20817      25   20826   20823      24
   20829   20823      24   20829   20826      25   20835   20832      24   20838
   20832      24   20838   20835      25   20844   20841      24   20847   20841
      24   20847   20844      25   20853   20850      24   20856   20850      24
   20856   20853      25   20862   20859      24   20865   20859      24   20865
   20862      25   20871   20868      24   20874   20868      24   20874   20871
      25   20880   20877      24   20883   20877      24   20883   20880      25
   20889   20886      24   20892   20886      24   20892   20889      25   20898
   20895      24   20901   20895      24   20901   20898      25   20907   20904
      24   20910   20904      24   20910   20907      25   20916   20913      24
   20919   20913      24   20919   20916      25   20925   20922      24   20928
   20922      24   20928   20925      25   20934   20931      24   20937   20931
      24   20937   20934      25   20943   20940      24   20946   20940      24
   20946   20943      25   20952   20949      24   20955   20949      24   20955
   20952      25   20961   20958      24   20964   20958      24   20964   20961
      25   20970   20967      24   20973   20967      24   20973   20970      25
   20979   20976      24   20982   20976      24   20982   20979      25   20988
   20985      24   20991   20985      24   20991   20988      25   20997   20994
      24   21000   20994      24   21000   20997      25   21006   21003      24
   21009   21003      24   21009   21006      25   21015   21012      24   21018
   21012      24   21018   21015      25   21024   21021      24   21027   21021
      24   21027   21024      25   21033   21030      24   21036   21030      24
   21036   21033      25   21042   21039      24   21045   21039      24   21045
   21042      25   21051   21048      24   21054   21048      24   21054   21051
      25   21060   21057      24   21063   21057      24   21063   21060      25
   21069   21066      24   21072   21066      24   21072   21069      25   21078
   21075      24   21081   21075      24   21081   21078      25   21087   21084
      24   21090   21084      24   21090   21087      25   21096   21093      24
   21099   21093      24   21099   21096      25   21105   21102      24   21108
   21102      24   21108   21105      25   21114   21111      24   21117   21111
      24   21117   21114      25   21123   21120      24   21126   21120      24
   21126   21123      25   21132   21129      24   21135   21129      24   21135
   21132      25   21141   21138      24   21144   21138      24   21144   21141
      25   21150   21147      24   21153   21147      24   21153   21150      25
   21159   21156      24   21162   21156      24   21162   21159      25   21168
   21165      24   21171   21165      24   21171   21168      25   21177   21174
      24   21180   21174      24   21180   21177      25   21186   21183      24
   21189   21183      24   21189   21186      25   21195   21192      24   21198
   21192      24   21198   21195      25   21204   21201      24   21207   21201
      24   21207   21204      25   21213   21210      24   21216   21210      24
   21216   21213      25   21222   21219      24   21225   21219      24   21225
   21222      25   21231   21228      24   21234   21228      24   21234   21231
      25   21240   21237      24   21243   21237      24   21243   21240      25
   21249   21246      24   21252   21246      24   21252   21249      25   21258
   21255      24   21261   21255      24   21261   21258      25   21267   21264
      24   21270   21264      24   21270   21267      25   21276   21273      24
   21279   21273      24   21279   21276      25   21285   21282      24   21288
   21282      24   21288   21285      25   21294   21291      24   21297   21291
      24   21297   21294      25   21303   21300      24   21306   21300      24
   21306   21303      25   21312   21309      24   21315   21309      24   21315
   21312      25   21321   21318      24   21324   21318      24   21324   21321
      25   21330   21327      24   21333   21327      24   21333   21330      25
   21339   21336      24   21342   21336      24   21342   21339      25   21348
   21345      24   21351   21345      24   21351   21348      25   21357   21354
      24   21360   21354      24   21360   21357      25   21366   21363      24
   21369   21363      24   21369   21366      25   21375   21372      24   21378
   21372      24   21378   21375      25   21384   21381      24   21387   21381
      24   21387   21384      25   21393   21390      24   21396   21390      24
   21396   21393      25   21402   21399      24   21405   21399      24   21405
   21402      25   21411   21408      24   21414   21408      24   21414   21411
      25   21420   21417      24   21423   21417      24   21423   21420      25
   21429   21426      24   21432   21426      24   21432   21429      25   21438
   21435      24   21441   21435      24   21441   21438      25   21447   21444
      24   21450   21444      24   21450   21447      25   21456   21453      24
   21459   21453      24   21459   21456      25   21465   21462      24   21468
   21462      24   21468   21465      25   21474   21471      24   21477   21471
      24   21477   21474      25   21483   21480      24   21486   21480      24
   21486   21483      25   21492   21489      24   21495   21489      24   21495
   21492      25   21501   21498      24   21504   21498      24   21504   21501
      25   21510   21507      24   21513   21507      24   21513   21510      25
   21519   21516      24   21522   21516      24   21522   21519      25   21528
   21525      24   21531   21525      24   21531   21528      25   21537   21534
      24   21540   21534      24   21540   21537      25   21546   21543      24
   21549   21543      24   21549   21546      25   21555   21552      24   21558
   21552      24   21558   21555      25   21564   21561      24   21567   21561
      24   21567   21564      25   21573   21570      24   21576   21570      24
   21576   21573      25   21582   21579      24   21585   21579      24   21585
   21582      25   21591   21588      24   21594   21588      24   21594   21591
      25   21600   21597      24   21603   21597      24   21603   21600      25
   21609   21606      24   21612   21606      24   21612   21609      25   21618
   21615      24   21621   21615      24   21621   21618      25   21627   21624
      24   21630   21624      24   21630   21627      25   21636   21633      24
   21639   21633      24   21639   21636      25   21645   21642      24   21648
   21642      24   21648   21645      25   21654   21651      24   21657   21651
      24   21657   21654      25   21663   21660      24   21666   21660      24
   21666   21663      25   21672   21669      24   21675   21669      24   21675
   21672      25   21681   21678      24   21684   21678      24   21684   21681
      25   21690   21687      24   21693   21687      24   21693   21690      25
   21699   21696      24   21702   21696      24   21702   21699      25   21708
   21705      24   21711   21705      24   21711   21708      25   21717   21714
      24   21720   21714      24   21720   21717      25   21726   21723      24
   21729   21723      24   21729   21726      25   21735   21732      24   21738
   21732      24   21738   21735      25   21744   21741      24   21747   21741
      24   21747   21744      25   21753   21750      24   21756   21750      24
   21756   21753      25   21762   21759      24   21765   21759      24   21765
   21762      25   21771   21768      24   21774   21768      24   21774   21771
      25   21780   21777      24   21783   21777      24   21783   21780      25
   21789   21786      24   21792   21786      24   21792   21789      25   21798
   21795      24   21801   21795      24   21801   21798      25   21807   21804
      24   21810   21804      24   21810   21807      25   21816   21813      24
   21819   21813      24   21819   21816      25   21825   21822      24   21828
   21822      24   21828   21825      25   21834   21831      24   21837   21831
      24   21837   21834      25   21843   21840      24   21846   21840      24
   21846   21843      25   21852   21849      24   21855   21849      24   21855
   21852      25   21861   21858      24   21864   21858      24   21864   21861
      25   21870   21867      24   21873   21867      24   21873   21870      25
   21879   21876      24   21882   21876      24   21882   21879      25   21888
   21885      24   21891   21885      24   21891   21888      25   21897   21894
      24   21900   21894      24   21900   21897      25   21906   21903      24
   21909   21903      24   21909   21906      25   21915   21912      24   21918
   21912      24   21918   21915      25   21924   21921      24   21927   21921
      24   21927   21924      25   21933   21930      24   21936   21930      24
   21936   21933      25   21942   21939      24   21945   21939      24   21945
   21942      25   21951   21948      24   21954   21948      24   21954   21951
      25   21960   21957      24   21963   21957      24   21963   21960      25
   21969   21966      24   21972   21966      24   21972   21969      25   21978
   21975      24   21981   21975      24   21981   21978      25   21987   21984
      24   21990   21984      24   21990   21987      25   21996   21993      24
   21999   21993      24   21999   21996      25   22005   22002      24   22008
   22002      24   22008   22005      25   22014   22011      24   22017   22011
      24   22017   22014      25   22023   22020      24   22026   22020      24
   22026   22023      25   22032   22029      24   22035   22029      24   22035
   22032      25   22041   22038      24   22044   22038      24   22044   22041
      25   22050   22047      24   22053   22047      24   22053   22050      25
   22059   22056      24   22062   22056      24   22062   22059      25   22068
   22065      24   22071   22065      24   22071   22068      25   22077   22074
      24   22080   22074      24   22080   22077      25   22086   22083      24
   22089   22083      24   22089   22086      25   22095   22092      24   22098
   22092      24   22098   22095      25   22104   22101      24   22107   22101
      24   22107   22104      25   22113   22110      24   22116   22110      24
   22116   22113      25   22122   22119      24   22125   22119      24   22125
   22122      25   22131   22128      24   22134   22128      24   22134   22131
      25   22140   22137      24   22143   22137      24   22143   22140      25
   22149   22146      24   22152   22146      24   22152   22149      25   22158
   22155      24   22161   22155      24   22161   22158      25   22167   22164
      24   22170   22164      24   22170   22167      25   22176   22173      24
   22179   22173      24   22179   22176      25   22185   22182      24   22188
   22182      24   22188   22185      25   22194   22191      24   22197   22191
      24   22197   22194      25   22203   22200      24   22206   22200      24
   22206   22203      25   22212   22209      24   22215   22209      24   22215
   22212      25   22221   22218      24   22224   22218      24   22224   22221
      25   22230   22227      24   22233   22227      24   22233   22230      25
   22239   22236      24   22242   22236      24   22242   22239      25   22248
   22245      24   22251   22245      24   22251   22248      25   22257   22254
      24   22260   22254      24   22260   22257      25   22266   22263      24
   22269   22263      24   22269   22266      25   22275   22272      24   22278
   22272      24   22278   22275      25   22284   22281      24   22287   22281
      24   22287   22284      25   22293   22290      24   22296   22290      24
   22296   22293      25   22302   22299      24   22305   22299      24   22305
   22302      25   22311   22308      24   22314   22308      24   22314   22311
      25   22320   22317      24   22323   22317      24   22323   22320      25
   22329   22326      24   22332   22326      24   22332   22329      25   22338
   22335      24   22341   22335      24   22341   22338      25   22347   22344
      24   22350   22344      24   22350   22347      25   22356   22353      24
   22359   22353      24   22359   22356      25   22365   22362      24   22368
   22362      24   22368   22365      25   22374   22371      24   22377   22371
      24   22377   22374      25   22383   22380      24   22386   22380      24
   22386   22383      25   22392   22389      24   22395   22389      24   22395
   22392      25   22401   22398      24   22404   22398      24   22404   22401
      25   22410   22407      24   22413   22407      24   22413   22410      25
   22419   22416      24   22422   22416      24   22422   22419      25   22428
   22425      24   22431   22425      24   22431   22428      25   22437   22434
      24   22440   22434      24   22440   22437      25   22446   22443      24
   22449   22443      24   22449   22446      25   22455   22452      24   22458
   22452      24   22458   22455      25   22464   22461      24   22467   22461
      24   22467   22464      25   22473   22470      24   22476   22470      24
   22476   22473      25   22482   22479      24   22485   22479      24   22485
   22482      25   22491   22488      24   22494   22488      24   22494   22491
      25   22500   22497      24   22503   22497      24   22503   22500      25
   22509   22506      24   22512   22506      24   22512   22509      25   22518
   22515      24   22521   22515      24   22521   22518      25   22527   22524
      24   22530   22524      24   22530   22527      25   22536   22533      24
   22539   22533      24   22539   22536      25   22545   22542      24   22548
   22542      24   22548   22545      25   22554   22551      24   22557   22551
      24   22557   22554      25   22563   22560      24   22566   22560      24
   22566   22563      25   22572   22569      24   22575   22569      24   22575
   22572      25   22581   22578      24   22584   22578      24   22584   22581
      25   22590   22587      24   22593   22587      24   22593   22590      25
   22599   22596      24   22602   22596      24   22602   22599      25   22608
   22605      24   22611   22605      24   22611   22608      25   22617   22614
      24   22620   22614      24   22620   22617      25   22626   22623      24
   22629   22623      24   22629   22626      25   22635   22632      24   22638
   22632      24   22638   22635      25   22644   22641      24   22647   22641
      24   22647   22644      25   22653   22650      24   22656   22650      24
   22656   22653      25   22662   22659      24   22665   22659      24   22665
   22662      25   22671   22668      24   22674   22668      24   22674   22671
      25   22680   22677      24   22683   22677      24   22683   22680      25
   22689   22686      24   22692   22686      24   22692   22689      25   22698
   22695      24   22701   22695      24   22701   22698      25   22707   22704
      24   22710   22704      24   22710   22707      25   22716   22713      24
   22719   22713      24   22719   22716      25   22725   22722      24   22728
   22722      24   22728   22725      25   22734   22731      24   22737   22731
      24   22737   22734      25   22743   22740      24   22746   22740      24
   22746   22743      25   22752   22749      24   22755   22749      24   22755
   22752      25   22761   22758      24   22764   22758      24   22764   22761
      25   22770   22767      24   22773   22767      24   22773   22770      25
   22779   22776      24   22782   22776      24   22782   22779      25   22788
   22785      24   22791   22785      24   22791   22788      25   22797   22794
      24   22800   22794      24   22800   22797      25   22806   22803      24
   22809   22803      24   22809   22806      25   22815   22812      24   22818
   22812      24   22818   22815      25   22824   22821      24   22827   22821
      24   22827   22824      25   22833   22830      24   22836   22830      24
   22836   22833      25   22842   22839      24   22845   22839      24   22845
   22842      25   22851   22848      24   22854   22848      24   22854   22851
      25   22860   22857      24   22863   22857      24   22863   22860      25
   22869   22866      24   22872   22866      24   22872   22869      25   22878
   22875      24   22881   22875      24   22881   22878      25   22887   22884
      24   22890   22884      24   22890   22887      25   22896   22893      24
   22899   22893      24   22899   22896      25   22905   22902      24   22908
   22902      24   22908   22905      25   22914   22911      24   22917   22911
      24   22917   22914      25   22923   22920      24   22926   22920      24
   22926   22923      25   22932   22929      24   22935   22929      24   22935
   22932      25   22941   22938      24   22944   22938      24   22944   22941
      25   22950   22947      24   22953   22947      24   22953   22950      25
   22959   22956      24   22962   22956      24   22962   22959      25   22968
   22965      24   22971   22965      24   22971   22968      25   22977   22974
      24   22980   22974      24   22980   22977      25   22986   22983      24
   22989   22983      24   22989   22986      25   22995   22992      24   22998
   22992      24   22998   22995      25   23004   23001      24   23007   23001
      24   23007   23004      25   23013   23010      24   23016   23010      24
   23016   23013      25   23022   23019      24   23025   23019      24   23025
   23022      25   23031   23028      24   23034   23028      24   23034   23031
      25   23040   23037      24   23043   23037      24   23043   23040      25
   23049   23046      24   23052   23046      24   23052   23049      25   23058
   23055      24   23061   23055      24   23061   23058      25   23067   23064
      24   23070   23064      24   23070   23067      25   23076   23073      24
   23079   23073      24   23079   23076      25   23085   23082      24   23088
   23082      24   23088   23085      25   23094   23091      24   23097   23091
      24   23097   23094      25   23103   23100      24   23106   23100      24
   23106   23103      25   23112   23109      24   23115   23109      24   23115
   23112      25   23121   23118      24   23124   23118      24   23124   23121
      25   23130   23127      24   23133   23127      24   23133   23130      25
   23139   23136      24   23142   23136      24   23142   23139      25   23148
   23145      24   23151   23145      24   23151   23148      25   23157   23154
      24   23160   23154      24   23160   23157      25   23166   23163      24
   23169   23163      24   23169   23166      25   23175   23172      24   23178
   23172      24   23178   23175      25   23184   23181      24   23187   23181
      24   23187   23184      25   23193   23190      24   23196   23190      24
   23196   23193      25   23202   23199      24   23205   23199      24   23205
   23202      25   23211   23208      24   23214   23208      24   23214   23211
      25   23220   23217      24   23223   23217      24   23223   23220      25
   23229   23226      24   23232   23226      24   23232   23229      25   23238
   23235      24   23241   23235      24   23241   23238      25   23247   23244
      24   23250   23244      24   23250   23247      25   23256   23253      24
   23259   23253      24   23259   23256      25   23265   23262      24   23268
   23262      24   23268   23265      25   23274   23271      24   23277   23271
      24   23277   23274      25   23283   23280      24   23286   23280      24
   23286   23283      25   23292   23289      24   23295   23289      24   23295
   23292      25   23301   23298      24   23304   23298      24   23304   23301
      25   23310   23307      24   23313   23307      24   23313   23310      25
   23319   23316      24   23322   23316      24   23322   23319      25   23328
   23325      24   23331   23325      24   23331   23328      25   23337   23334
      24   23340   23334      24   23340   23337      25   23346   23343      24
   23349   23343      24   23349   23346      25   23355   23352      24   23358
   23352      24   23358   23355      25   23364   23361      24   23367   23361
      24   23367   23364      25   23373   23370      24   23376   23370      24
   23376   23373      25   23382   23379      24   23385   23379      24   23385
   23382      25   23391   23388      24   23394   23388      24   23394   23391
      25   23400   23397      24   23403   23397      24   23403   23400      25
   23409   23406      24   23412   23406      24   23412   23409      25   23418
   23415      24   23421   23415      24   23421   23418      25   23427   23424
      24   23430   23424      24   23430   23427      25   23436   23433      24
   23439   23433      24   23439   23436      25   23445   23442      24   23448
   23442      24   23448   23445      25   23454   23451      24   23457   23451
      24   23457   23454      25   23463   23460      24   23466   23460      24
   23466   23463      25   23472   23469      24   23475   23469      24   23475
   23472      25   23481   23478      24   23484   23478      24   23484   23481
      25   23490   23487      24   23493   23487      24   23493   23490      25
   23499   23496      24   23502   23496      24   23502   23499      25   23508
   23505      24   23511   23505      24   23511   23508      25   23517   23514
      24   23520   23514      24   23520   23517      25   23526   23523      24
   23529   23523      24   23529   23526      25   23535   23532      24   23538
   23532      24   23538   23535      25   23544   23541      24   23547   23541
      24   23547   23544      25   23553   23550      24   23556   23550      24
   23556   23553      25   23562   23559      24   23565   23559      24   23565
   23562      25   23571   23568      24   23574   23568      24   23574   23571
      25   23580   23577      24   23583   23577      24   23583   23580      25
   23589   23586      24   23592   23586      24   23592   23589      25   23598
   23595      24   23601   23595      24   23601   23598      25   23607   23604
      24   23610   23604      24   23610   23607      25   23616   23613      24
   23619   23613      24   23619   23616      25   23625   23622      24   23628
   23622      24   23628   23625      25   23634   23631      24   23637   23631
      24   23637   23634      25   23643   23640      24   23646   23640      24
   23646   23643      25   23652   23649      24   23655   23649      24   23655
   23652      25   23661   23658      24   23664   23658      24   23664   23661
      25   23670   23667      24   23673   23667      24   23673   23670      25
   23679   23676      24   23682   23676      24   23682   23679      25   23688
   23685      24   23691   23685      24   23691   23688      25   23697   23694
      24   23700   23694      24   23700   23697      25   23706   23703      24
   23709   23703      24   23709   23706      25   23715   23712      24   23718
   23712      24   23718   23715      25   23724   23721      24   23727   23721
      24   23727   23724      25   23733   23730      24   23736   23730      24
   23736   23733      25   23742   23739      24   23745   23739      24   23745
   23742      25   23751   23748      24   23754   23748      24   23754   23751
      25   23760   23757      24   23763   23757      24   23763   23760      25
   23769   23766      24   23772   23766      24   23772   23769      25   23778
   23775      24   23781   23775      24   23781   23778      25   23787   23784
      24   23790   23784      24   23790   23787      25   23796   23793      24
   23799   23793      24   23799   23796      25   23805   23802      24   23808
   23802      24   23808   23805      25   23814   23811      24   23817   23811
      24   23817   23814      25   23823   23820      24   23826   23820      24
   23826   23823      25   23832   23829      24   23835   23829      24   23835
   23832      25   23841   23838      24   23844   23838      24   23844   23841
      25   23850   23847      24   23853   23847      24   23853   23850      25
   23859   23856      24   23862   23856      24   23862   23859      25   23868
   23865      24   23871   23865      24   23871   23868      25   23877   23874
      24   23880   23874      24   23880   23877      25   23886   23883      24
   23889   23883      24   23889   23886      25   23895   23892      24   23898
   23892      24   23898   23895      25   23904   23901      24   23907   23901
      24   23907   23904      25   23913   23910      24   23916   23910      24
   23916   23913      25   23922   23919      24   23925   23919      24   23925
   23922      25   23931   23928      24   23934   23928      24   23934   23931
      25   23940   23937      24   23943   23937      24   23943   23940      25
   23949   23946      24   23952   23946      24   23952   23949      25   23958
   23955      24   23961   23955      24   23961   23958      25   23967   23964
      24   23970   23964      24   23970   23967      25   23976   23973      24
   23979   23973      24   23979   23976      25   23985   23982      24   23988
   23982      24   23988   23985      25   23994   23991      24   23997   23991
      24   23997   23994      25   24003   24000      24   24006   24000      24
   24006   24003      25   24012   24009      24   24015   24009      24   24015
   24012      25   24021   24018      24   24024   24018      24   24024   24021
      25   24030   24027      24   24033   24027      24   24033   24030      25
   24039   24036      24   24042   24036      24   24042   24039      25   24048
   24045      24   24051   24045      24   24051   24048      25   24057   24054
      24   24060   24054      24   24060   24057      25   24066   24063      24
   24069   24063      24   24069   24066      25   24075   24072      24   24078
   24072      24   24078   24075      25   24084   24081      24   24087   24081
      24   24087   24084      25   24093   24090      24   24096   24090      24
   24096   24093      25   24102   24099      24   24105   24099      24   24105
   24102      25   24111   24108      24   24114   24108      24   24114   24111
      25   24120   24117      24   24123   24117      24   24123   24120      25
   24129   24126      24   24132   24126      24   24132   24129      25   24138
   24135      24   24141   24135      24   24141   24138      25   24147   24144
      24   24150   24144      24   24150   24147      25   24156   24153      24
   24159   24153      24   24159   24156      25   24165   24162      24   24168
   24162      24   24168   24165      25   24174   24171      24   24177   24171
      24   24177   24174      25   24183   24180      24   24186   24180      24
   24186   24183      25   24192   24189      24   24195   24189      24   24195
   24192      25   24201   24198      24   24204   24198      24   24204   24201
      25   24210   24207      24   24213   24207      24   24213   24210      25
   24219   24216      24   24222   24216      24   24222   24219      25   24228
   24225      24   24231   24225      24   24231   24228      25   24237   24234
      24   24240   24234      24   24240   24237      25   24246   24243      24
   24249   24243      24   24249   24246      25   24255   24252      24   24258
   24252      24   24258   24255      25   24264   24261      24   24267   24261
      24   24267   24264      25   24273   24270      24   24276   24270      24
   24276   24273      25   24282   24279      24   24285   24279      24   24285
   24282      25   24291   24288      24   24294   24288      24   24294   24291
      25   24300   24297      24   24303   24297      24   24303   24300      25
   24309   24306      24   24312   24306      24   24312   24309      25   24318
   24315      24   24321   24315      24   24321   24318      25   24327   24324
      24   24330   24324      24   24330   24327      25   24336   24333      24
   24339   24333      24   24339   24336      25   24345   24342      24   24348
   24342      24   24348   24345      25   24354   24351      24   24357   24351
      24   24357   24354      25   24363   24360      24   24366   24360      24
   24366   24363      25   24372   24369      24   24375   24369      24   24375
   24372      25   24381   24378      24   24384   24378      24   24384   24381
      25   24390   24387      24   24393   24387      24   24393   24390      25
   24399   24396      24   24402   24396      24   24402   24399      25   24408
   24405      24   24411   24405      24   24411   24408      25   24417   24414
      24   24420   24414      24   24420   24417      25   24426   24423      24
   24429   24423      24   24429   24426      25   24435   24432      24   24438
   24432      24   24438   24435      25   24444   24441      24   24447   24441
      24   24447   24444      25   24453   24450      24   24456   24450      24
   24456   24453      25   24462   24459      24   24465   24459      24   24465
   24462      25   24471   24468      24   24474   24468      24   24474   24471
      25   24480   24477      24   24483   24477      24   24483   24480      25
   24489   24486      24   24492   24486      24   24492   24489      25   24498
   24495      24   24501   24495      24   24501   24498      25   24507   24504
      24   24510   24504      24   24510   24507      25   24516   24513      24
   24519   24513      24   24519   24516      25   24525   24522      24   24528
   24522      24   24528   24525      25   24534   24531      24   24537   24531
      24   24537   24534      25   24543   24540      24   24546   24540      24
   24546   24543      25   24552   24549      24   24555   24549      24   24555
   24552      25   24561   24558      24   24564   24558      24   24564   24561
      25   24570   24567      24   24573   24567      24   24573   24570      25
   24579   24576      24   24582   24576      24   24582   24579      25   24588
   24585      24   24591   24585      24   24591   24588      25   24597   24594
      24   24600   24594      24   24600   24597      25   24606   24603      24
   24609   24603      24   24609   24606      25   24615   24612      24   24618
   24612      24   24618   24615      25   24624   24621      24   24627   24621
      24   24627   24624      25   24633   24630      24   24636   24630      24
   24636   24633      25   24642   24639      24   24645   24639      24   24645
   24642      25   24651   24648      24   24654   24648      24   24654   24651
      25   24660   24657      24   24663   24657      24   24663   24660      25
   24669   24666      24   24672   24666      24   24672   24669      25   24678
   24675      24   24681   24675      24   24681   24678      25   24687   24684
      24   24690   24684      24   24690   24687      25   24696   24693      24
   24699   24693      24   24699   24696      25   24705   24702      24   24708
   24702      24   24708   24705      25   24714   24711      24   24717   24711
      24   24717   24714      25   24723   24720      24   24726   24720      24
   24726   24723      25   24732   24729      24   24735   24729      24   24735
   24732      25   24741   24738      24   24744   24738      24   24744   24741
      25   24750   24747      24   24753   24747      24   24753   24750      25
   24759   24756      24   24762   24756      24   24762   24759      25   24768
   24765      24   24771   24765      24   24771   24768      25   24777   24774
      24   24780   24774      24   24780   24777      25   24786   24783      24
   24789   24783      24   24789   24786      25   24795   24792      24   24798
   24792      24   24798   24795      25   24804   24801      24   24807   24801
      24   24807   24804      25   24813   24810      24   24816   24810      24
   24816   24813      25   24822   24819      24   24825   24819      24   24825
   24822      25   24831   24828      24   24834   24828      24   24834   24831
      25   24840   24837      24   24843   24837      24   24843   24840      25
   24849   24846      24   24852   24846      24   24852   24849      25   24858
   24855      24   24861   24855      24   24861   24858      25   24867   24864
      24   24870   24864      24   24870   24867      25   24876   24873      24
   24879   24873      24   24879   24876      25   24885   24882      24   24888
   24882      24   24888   24885      25   24894   24891      24   24897   24891
      24   24897   24894      25   24903   24900      24   24906   24900      24
   24906   24903      25   24912   24909      24   24915   24909      24   24915
   24912      25   24921   24918      24   24924   24918      24   24924   24921
      25   24930   24927      24   24933   24927      24   24933   24930      25
   24939   24936      24   24942   24936      24   24942   24939      25   24948
   24945      24   24951   24945      24   24951   24948      25   24957   24954
      24   24960   24954      24   24960   24957      25   24966   24963      24
   24969   24963      24   24969   24966      25   24975   24972      24   24978
   24972      24   24978   24975      25   24984   24981      24   24987   24981
      24   24987   24984      25   24993   24990      24   24996   24990      24
   24996   24993      25   25002   24999      24   25005   24999      24   25005
   25002      25   25011   25008      24   25014   25008      24   25014   25011
      25   25020   25017      24   25023   25017      24   25023   25020      25
   25029   25026      24   25032   25026      24   25032   25029      25   25038
   25035      24   25041   25035      24   25041   25038      25   25047   25044
      24   25050   25044      24   25050   25047      25   25056   25053      24
   25059   25053      24   25059   25056      25   25065   25062      24   25068
   25062      24   25068   25065      25   25074   25071      24   25077   25071
      24   25077   25074      25   25083   25080      24   25086   25080      24
   25086   25083      25   25092   25089      24   25095   25089      24   25095
   25092      25   25101   25098      24   25104   25098      24   25104   25101
      25   25110   25107      24   25113   25107      24   25113   25110      25
   25119   25116      24   25122   25116      24   25122   25119      25   25128
   25125      24   25131   25125      24   25131   25128      25   25137   25134
      24   25140   25134      24   25140   25137      25   25146   25143      24
   25149   25143      24   25149   25146      25   25155   25152      24   25158
   25152      24   25158   25155      25   25164   25161      24   25167   25161
      24   25167   25164      25   25173   25170      24   25176   25170      24
   25176   25173      25   25182   25179      24   25185   25179      24   25185
   25182      25   25191   25188      24   25194   25188      24   25194   25191
      25   25200   25197      24   25203   25197      24   25203   25200      25
   25209   25206      24   25212   25206      24   25212   25209      25   25218
   25215      24   25221   25215      24   25221   25218      25   25227   25224
      24   25230   25224      24   25230   25227      25   25236   25233      24
   25239   25233      24   25239   25236      25   25245   25242      24   25248
   25242      24   25248   25245      25   25254   25251      24   25257   25251
      24   25257   25254      25   25263   25260      24   25266   25260      24
   25266   25263      25   25272   25269      24   25275   25269      24   25275
   25272      25   25281   25278      24   25284   25278      24   25284   25281
      25   25290   25287      24   25293   25287      24   25293   25290      25
   25299   25296      24   25302   25296      24   25302   25299      25   25308
   25305      24   25311   25305      24   25311   25308      25   25317   25314
      24   25320   25314      24   25320   25317      25   25326   25323      24
   25329   25323      24   25329   25326      25   25335   25332      24   25338
   25332      24   25338   25335      25   25344   25341      24   25347   25341
      24   25347   25344      25   25353   25350      24   25356   25350      24
   25356   25353      25   25362   25359      24   25365   25359      24   25365
   25362      25   25371   25368      24   25374   25368      24   25374   25371
      25   25380   25377      24   25383   25377      24   25383   25380      25
   25389   25386      24   25392   25386      24   25392   25389      25   25398
   25395      24   25401   25395      24   25401   25398      25   25407   25404
      24   25410   25404      24   25410   25407      25   25416   25413      24
   25419   25413      24   25419   25416      25   25425   25422      24   25428
   25422      24   25428   25425      25   25434   25431      24   25437   25431
      24   25437   25434      25   25443   25440      24   25446   25440      24
   25446   25443      25   25452   25449      24   25455   25449      24   25455
   25452      25   25461   25458      24   25464   25458      24   25464   25461
      25   25470   25467      24   25473   25467      24   25473   25470      25
   25479   25476      24   25482   25476      24   25482   25479      25   25488
   25485      24   25491   25485      24   25491   25488      25   25497   25494
      24   25500   25494      24   25500   25497      25   25506   25503      24
   25509   25503      24   25509   25506      25   25515   25512      24   25518
   25512      24   25518   25515      25   25524   25521      24   25527   25521
      24   25527   25524      25   25533   25530      24   25536   25530      24
   25536   25533      25   25542   25539      24   25545   25539      24   25545
   25542      25   25551   25548      24   25554   25548      24   25554   25551
      25   25560   25557      24   25563   25557      24   25563   25560      25
   25569   25566      24   25572   25566      24   25572   25569      25   25578
   25575      24   25581   25575      24   25581   25578      25   25587   25584
      24   25590   25584      24   25590   25587      25   25596   25593      24
   25599   25593      24   25599   25596      25   25605   25602      24   25608
   25602      24   25608   25605      25   25614   25611      24   25617   25611
      24   25617   25614      25   25623   25620      24   25626   25620      24
   25626   25623      25   25632   25629      24   25635   25629      24   25635
   25632      25   25641   25638      24   25644   25638      24   25644   25641
      25   25650   25647      24   25653   25647      24   25653   25650      25
   25659   25656      24   25662   25656      24   25662   25659      25   25668
   25665      24   25671   25665      24   25671   25668      25   25677   25674
      24   25680   25674      24   25680   25677      25   25686   25683      24
   25689   25683      24   25689   25686      25   25695   25692      24   25698
   25692      24   25698   25695      25   25704   25701      24   25707   25701
      24   25707   25704      25   25713   25710      24   25716   25710      24
   25716   25713      25   25722   25719      24   25725   25719      24   25725
   25722      25   25731   25728      24   25734   25728      24   25734   25731
      25   25740   25737      24   25743   25737      24   25743   25740      25
   25749   25746      24   25752   25746      24   25752   25749      25   25758
   25755      24   25761   25755      24   25761   25758      25   25767   25764
      24   25770   25764      24   25770   25767      25   25776   25773      24
   25779   25773      24   25779   25776      25   25785   25782      24   25788
   25782      24   25788   25785      25   25794   25791      24   25797   25791
      24   25797   25794      25   25803   25800      24   25806   25800      24
   25806   25803      25   25812   25809      24   25815   25809      24   25815
   25812      25   25821   25818      24   25824   25818      24   25824   25821
      25   25830   25827      24   25833   25827      24   25833   25830      25
   25839   25836      24   25842   25836      24   25842   25839      25   25848
   25845      24   25851   25845      24   25851   25848      25   25857   25854
      24   25860   25854      24   25860   25857      25   25866   25863      24
   25869   25863      24   25869   25866      25   25875   25872      24   25878
   25872      24   25878   25875      25   25884   25881      24   25887   25881
      24   25887   25884      25   25893   25890      24   25896   25890      24
   25896   25893      25   25902   25899      24   25905   25899      24   25905
   25902      25   25911   25908      24   25914   25908      24   25914   25911
      25   25920   25917      24   25923   25917      24   25923   25920      25
   25929   25926      24   25932   25926      24   25932   25929      25   25938
   25935      24   25941   25935      24   25941   25938      25   25947   25944
      24   25950   25944      24   25950   25947      25   25956   25953      24
   25959   25953      24   25959   25956      25   25965   25962      24   25968
   25962      24   25968   25965      25   25974   25971      24   25977   25971
      24   25977   25974      25   25983   25980      24   25986   25980      24
   25986   25983      25   25992   25989      24   25995   25989      24   25995
   25992      25   26001   25998      24   26004   25998      24   26004   26001
      25   26010   26007      24   26013   26007      24   26013   26010      25
   26019   26016      24   26022   26016      24   26022   26019      25   26028
   26025      24   26031   26025      24   26031   26028      25   26037   26034
      24   26040   26034      24   26040   26037      25   26046   26043      24
   26049   26043      24   26049   26046      25   26055   26052      24   26058
   26052      24   26058   26055      25   26064   26061      24   26067   26061
      24   26067   26064      25   26073   26070      24   26076   26070      24
   26076   26073      25   26082   26079      24   26085   26079      24   26085
   26082      25   26091   26088      24   26094   26088      24   26094   26091
      25   26100   26097      24   26103   26097      24   26103   26100      25
   26109   26106      24   26112   26106      24   26112   26109      25   26118
   26115      24   26121   26115      24   26121   26118      25   26127   26124
      24   26130   26124      24   26130   26127      25   26136   26133      24
   26139   26133      24   26139   26136      25   26145   26142      24   26148
   26142      24   26148   26145      25   26154   26151      24   26157   26151
      24   26157   26154      25   26163   26160      24   26166   26160      24
   26166   26163      25   26172   26169      24   26175   26169      24   26175
   26172      25   26181   26178      24   26184   26178      24   26184   26181
      25   26190   26187      24   26193   26187      24   26193   26190      25
   26199   26196      24   26202   26196      24   26202   26199      25   26208
   26205      24   26211   26205      24   26211   26208      25   26217   26214
      24   26220   26214      24   26220   26217      25   26226   26223      24
   26229   26223      24   26229   26226      25   26235   26232      24   26238
   26232      24   26238   26235      25   26244   26241      24   26247   26241
      24   26247   26244      25   26253   26250      24   26256   26250      24
   26256   26253      25   26262   26259      24   26265   26259      24   26265
   26262      25   26271   26268      24   26274   26268      24   26274   26271
      25   26280   26277      24   26283   26277      24   26283   26280      25
   26289   26286      24   26292   26286      24   26292   26289      25   26298
   26295      24   26301   26295      24   26301   26298      25   26307   26304
      24   26310   26304      24   26310   26307      25   26316   26313      24
   26319   26313      24   26319   26316      25   26325   26322      24   26328
   26322      24   26328   26325      25   26334   26331      24   26337   26331
      24   26337   26334      25   26343   26340      24   26346   26340      24
   26346   26343      25   26352   26349      24   26355   26349      24   26355
   26352      25   26361   26358      24   26364   26358      24   26364   26361
      25   26370   26367      24   26373   26367      24   26373   26370      25
   26379   26376      24   26382   26376      24   26382   26379      25   26388
   26385      24   26391   26385      24   26391   26388      25   26397   26394
      24   26400   26394      24   26400   26397      25   26406   26403      24
   26409   26403      24   26409   26406      25   26415   26412      24   26418
   26412      24   26418   26415      25   26424   26421      24   26427   26421
      24   26427   26424      25   26433   26430      24   26436   26430      24
   26436   26433      25   26442   26439      24   26445   26439      24   26445
   26442      25   26451   26448      24   26454   26448      24   26454   26451
      25   26460   26457      24   26463   26457      24   26463   26460      25
   26469   26466      24   26472   26466      24   26472   26469      25   26478
   26475      24   26481   26475      24   26481   26478      25   26487   26484
      24   26490   26484      24   26490   26487      25   26496   26493      24
   26499   26493      24   26499   26496      25   26505   26502      24   26508
   26502      24   26508   26505      25   26514   26511      24   26517   26511
      24   26517   26514      25   26523   26520      24   26526   26520      24
   26526   26523      25   26532   26529      24   26535   26529      24   26535
   26532      25   26541   26538      24   26544   26538      24   26544   26541
      25   26550   26547      24   26553   26547      24   26553   26550      25
   26559   26556      24   26562   26556      24   26562   26559      25   26568
   26565      24   26571   26565      24   26571   26568      25   26577   26574
      24   26580   26574      24   26580   26577      25   26586   26583      24
   26589   26583      24   26589   26586      25   26595   26592      24   26598
   26592      24   26598   26595      25   26604   26601      24   26607   26601
      24   26607   26604      25   26613   26610      24   26616   26610      24
   26616   26613      25   26622   26619      24   26625   26619      24   26625
   26622      25   26631   26628      24   26634   26628      24   26634   26631
      25   26640   26637      24   26643   26637      24   26643   26640      25
   26649   26646      24   26652   26646      24   26652   26649      25   26658
   26655      24   26661   26655      24   26661   26658      25   26667   26664
      24   26670   26664      24   26670   26667      25   26676   26673      24
   26679   26673      24   26679   26676      25   26685   26682      24   26688
   26682      24   26688   26685      25   26694   26691      24   26697   26691
      24   26697   26694      25   26703   26700      24   26706   26700      24
   26706   26703      25   26712   26709      24   26715   26709      24   26715
   26712      25   26721   26718      24   26724   26718      24   26724   26721
      25   26730   26727      24   26733   26727      24   26733   26730      25
   26739   26736      24   26742   26736      24   26742   26739      25   26748
   26745      24   26751   26745      24   26751   26748      25   26757   26754
      24   26760   26754      24   26760   26757      25   26766   26763      24
   26769   26763      24   26769   26766      25   26775   26772      24   26778
   26772      24   26778   26775      25   26784   26781      24   26787   26781
      24   26787   26784      25   26793   26790      24   26796   26790      24
   26796   26793      25   26802   26799      24   26805   26799      24   26805
   26802      25   26811   26808      24   26814   26808      24   26814   26811
      25   26820   26817      24   26823   26817      24   26823   26820      25
   26829   26826      24   26832   26826      24   26832   26829      25   26838
   26835      24   26841   26835      24   26841   26838      25   26847   26844
      24   26850   26844      24   26850   26847      25   26856   26853      24
   26859   26853      24   26859   26856      25   26865   26862      24   26868
   26862      24   26868   26865      25   26874   26871      24   26877   26871
      24   26877   26874      25   26883   26880      24   26886   26880      24
   26886   26883      25   26892   26889      24   26895   26889      24   26895
   26892      25   26901   26898      24   26904   26898      24   26904   26901
      25   26910   26907      24   26913   26907      24   26913   26910      25
   26919   26916      24   26922   26916      24   26922   26919      25   26928
   26925      24   26931   26925      24   26931   26928      25   26937   26934
      24   26940   26934      24   26940   26937      25   26946   26943      24
   26949   26943      24   26949   26946      25   26955   26952      24   26958
   26952      24   26958   26955      25   26964   26961      24   26967   26961
      24   26967   26964      25   26973   26970      24   26976   26970      24
   26976   26973      25   26982   26979      24   26985   26979      24   26985
   26982      25   26991   26988      24   26994   26988      24   26994   26991
      25   27000   26997      24   27003   26997      24   27003   27000      25
   27009   27006      24   27012   27006      24   27012   27009      25   27018
   27015      24   27021   27015      24   27021   27018      25   27027   27024
      24   27030   27024      24   27030   27027      25   27036   27033      24
   27039   27033      24   27039   27036      25   27045   27042      24   27048
   27042      24   27048   27045      25   27054   27051      24   27057   27051
      24   27057   27054      25   27063   27060      24   27066   27060      24
   27066   27063      25   27072   27069      24   27075   27069      24   27075
   27072      25   27081   27078      24   27084   27078      24   27084   27081
      25   27090   27087      24   27093   27087      24   27093   27090      25
   27099   27096      24   27102   27096      24   27102   27099      25   27108
   27105      24   27111   27105      24   27111   27108      25   27117   27114
      24   27120   27114      24   27120   27117      25   27126   27123      24
   27129   27123      24   27129   27126      25   27135   27132      24   27138
   27132      24   27138   27135      25   27144   27141      24   27147   27141
      24   27147   27144      25   27153   27150      24   27156   27150      24
   27156   27153      25   27162   27159      24   27165   27159      24   27165
   27162      25   27171   27168      24   27174   27168      24   27174   27171
      25   27180   27177      24   27183   27177      24   27183   27180      25
   27189   27186      24   27192   27186      24   27192   27189      25   27198
   27195      24   27201   27195      24   27201   27198      25   27207   27204
      24   27210   27204      24   27210   27207      25   27216   27213      24
   27219   27213      24   27219   27216      25   27225   27222      24   27228
   27222      24   27228   27225      25   27234   27231      24   27237   27231
      24   27237   27234      25   27243   27240      24   27246   27240      24
   27246   27243      25   27252   27249      24   27255   27249      24   27255
   27252      25   27261   27258      24   27264   27258      24   27264   27261
      25   27270   27267      24   27273   27267      24   27273   27270      25
   27279   27276      24   27282   27276      24   27282   27279      25   27288
   27285      24   27291   27285      24   27291   27288      25   27297   27294
      24   27300   27294      24   27300   27297      25   27306   27303      24
   27309   27303      24   27309   27306      25   27315   27312      24   27318
   27312      24   27318   27315      25   27324   27321      24   27327   27321
      24   27327   27324      25   27333   27330      24   27336   27330      24
   27336   27333      25   27342   27339      24   27345   27339      24   27345
   27342      25   27351   27348      24   27354   27348      24   27354   27351
      25   27360   27357      24   27363   27357      24   27363   27360      25
   27369   27366      24   27372   27366      24   27372   27369      25   27378
   27375      24   27381   27375      24   27381   27378      25   27387   27384
      24   27390   27384      24   27390   27387      25   27396   27393      24
   27399   27393      24   27399   27396      25   27405   27402      24   27408
   27402      24   27408   27405      25   27414   27411      24   27417   27411
      24   27417   27414      25   27423   27420      24   27426   27420      24
   27426   27423      25   27432   27429      24   27435   27429      24   27435
   27432      25   27441   27438      24   27444   27438      24   27444   27441
      25   27450   27447      24   27453   27447      24   27453   27450      25
   27459   27456      24   27462   27456      24   27462   27459      25   27468
   27465      24   27471   27465      24   27471   27468      25   27477   27474
      24   27480   27474      24   27480   27477      25   27486   27483      24
   27489   27483      24   27489   27486      25   27495   27492      24   27498
   27492      24   27498   27495      25   27504   27501      24   27507   27501
      24   27507   27504      25   27513   27510      24   27516   27510      24
   27516   27513      25   27522   27519      24   27525   27519      24   27525
   27522      25   27531   27528      24   27534   27528      24   27534   27531
      25   27540   27537      24   27543   27537      24   27543   27540      25
   27549   27546      24   27552   27546      24   27552   27549      25   27558
   27555      24   27561   27555      24   27561   27558      25   27567   27564
      24   27570   27564      24   27570   27567      25   27576   27573      24
   27579   27573      24   27579   27576      25   27585   27582      24   27588
   27582      24   27588   27585      25   27594   27591      24   27597   27591
      24   27597   27594      25   27603   27600      24   27606   27600      24
   27606   27603      25   27612   27609      24   27615   27609      24   27615
   27612      25   27621   27618      24   27624   27618      24   27624   27621
      25   27630   27627      24   27633   27627      24   27633   27630      25
   27639   27636      24   27642   27636      24   27642   27639      25   27648
   27645      24   27651   27645      24   27651   27648      25   27657   27654
      24   27660   27654      24   27660   27657      25   27666   27663      24
   27669   27663      24   27669   27666      25   27675   27672      24   27678
   27672      24   27678   27675      25   27684   27681      24   27687   27681
      24   27687   27684      25   27693   27690      24   27696   27690      24
   27696   27693      25   27702   27699      24   27705   27699      24   27705
   27702      25   27711   27708      24   27714   27708      24   27714   27711
      25   27720   27717      24   27723   27717      24   27723   27720      25
   27729   27726      24   27732   27726      24   27732   27729      25   27738
   27735      24   27741   27735      24   27741   27738      25   27747   27744
      24   27750   27744      24   27750   27747      25   27756   27753      24
   27759   27753      24   27759   27756      25   27765   27762      24   27768
   27762      24   27768   27765      25   27774   27771      24   27777   27771
      24   27777   27774      25   27783   27780      24   27786   27780      24
   27786   27783      25   27792   27789      24   27795   27789      24   27795
   27792      25   27801   27798      24   27804   27798      24   27804   27801
      25   27810   27807      24   27813   27807      24   27813   27810      25
   27819   27816      24   27822   27816      24   27822   27819      25   27828
   27825      24   27831   27825      24   27831   27828      25   27837   27834
      24   27840   27834      24   27840   27837      25   27846   27843      24
   27849   27843      24   27849   27846      25   27855   27852      24   27858
   27852      24   27858   27855      25   27864   27861      24   27867   27861
      24   27867   27864      25   27873   27870      24   27876   27870      24
   27876   27873      25   27882   27879      24   27885   27879      24   27885
   27882      25   27891   27888      24   27894   27888      24   27894   27891
      25   27900   27897      24   27903   27897      24   27903   27900      25
   27909   27906      24   27912   27906      24   27912   27909      25   27918
   27915      24   27921   27915      24   27921   27918      25   27927   27924
      24   27930   27924      24   27930   27927      25   27936   27933      24
   27939   27933      24   27939   27936      25   27945   27942      24   27948
   27942      24   27948   27945      25   27954   27951      24   27957   27951
      24   27957   27954      25   27963   27960      24   27966   27960      24
   27966   27963      25   27972   27969      24   27975   27969      24   27975
   27972      25   27981   27978      24   27984   27978      24   27984   27981
      25   27990   27987      24   27993   27987      24   27993   27990      25
   27999   27996      24   28002   27996      24   28002   27999      25   28008
   28005      24   28011   28005      24   28011   28008      25   28017   28014
      24   28020   28014      24   28020   28017      25   28026   28023      24
   28029   28023      24   28029   28026      25   28035   28032      24   28038
   28032      24   28038   28035      25   28044   28041      24   28047   28041
      24   28047   28044      25   28053   28050      24   28056   28050      24
   28056   28053      25   28062   28059      24   28065   28059      24   28065
   28062      25   28071   28068      24   28074   28068      24   28074   28071
      25   28080   28077      24   28083   28077      24   28083   28080      25
   28089   28086      24   28092   28086      24   28092   28089      25   28098
   28095      24   28101   28095      24   28101   28098      25   28107   28104
      24   28110   28104      24   28110   28107      25   28116   28113      24
   28119   28113      24   28119   28116      25   28125   28122      24   28128
   28122      24   28128   28125      25   28134   28131      24   28137   28131
      24   28137   28134      25   28143   28140      24   28146   28140      24
   28146   28143      25   28152   28149      24   28155   28149      24   28155
   28152      25   28161   28158      24   28164   28158      24   28164   28161
      25   28170   28167      24   28173   28167      24   28173   28170      25
   28179   28176      24   28182   28176      24   28182   28179      25   28188
   28185      24   28191   28185      24   28191   28188      25   28197   28194
      24   28200   28194      24   28200   28197      25   28206   28203      24
   28209   28203      24   28209   28206      25   28215   28212      24   28218
   28212      24   28218   28215      25   28224   28221      24   28227   28221
      24   28227   28224      25   28233   28230      24   28236   28230      24
   28236   28233      25   28242   28239      24   28245   28239      24   28245
   28242      25   28251   28248      24   28254   28248      24   28254   28251
      25   28260   28257      24   28263   28257      24   28263   28260      25
   28269   28266      24   28272   28266      24   28272   28269      25   28278
   28275      24   28281   28275      24   28281   28278      25   28287   28284
      24   28290   28284      24   28290   28287      25   28296   28293      24
   28299   28293      24   28299   28296      25   28305   28302      24   28308
   28302      24   28308   28305      25   28314   28311      24   28317   28311
      24   28317   28314      25   28323   28320      24   28326   28320      24
   28326   28323      25   28332   28329      24   28335   28329      24   28335
   28332      25   28341   28338      24   28344   28338      24   28344   28341
      25   28350   28347      24   28353   28347      24   28353   28350      25
   28359   28356      24   28362   28356      24   28362   28359      25   28368
   28365      24   28371   28365      24   28371   28368      25   28377   28374
      24   28380   28374      24   28380   28377      25   28386   28383      24
   28389   28383      24   28389   28386      25   28395   28392      24   28398
   28392      24   28398   28395      25   28404   28401      24   28407   28401
      24   28407   28404      25   28413   28410      24   28416   28410      24
   28416   28413      25   28422   28419      24   28425   28419      24   28425
   28422      25   28431   28428      24   28434   28428      24   28434   28431
      25   28440   28437      24   28443   28437      24   28443   28440      25
   28449   28446      24   28452   28446      24   28452   28449      25   28458
   28455      24   28461   28455      24   28461   28458      25   28467   28464
      24   28470   28464      24   28470   28467      25   28476   28473      24
   28479   28473      24   28479   28476      25   28485   28482      24   28488
   28482      24   28488   28485      25   28494   28491      24   28497   28491
      24   28497   28494      25   28503   28500      24   28506   28500      24
   28506   28503      25   28512   28509      24   28515   28509      24   28515
   28512      25   28521   28518      24   28524   28518      24   28524   28521
      25   28530   28527      24   28533   28527      24   28533   28530      25
   28539   28536      24   28542   28536      24   28542   28539      25   28548
   28545      24   28551   28545      24   28551   28548      25   28557   28554
      24   28560   28554      24   28560   28557      25   28566   28563      24
   28569   28563      24   28569   28566      25   28575   28572      24   28578
   28572      24   28578   28575      25   28584   28581      24   28587   28581
      24   28587   28584      25   28593   28590      24   28596   28590      24
   28596   28593      25   28602   28599      24   28605   28599      24   28605
   28602      25   28611   28608      24   28614   28608      24   28614   28611
      25   28620   28617      24   28623   28617      24   28623   28620      25
   28629   28626      24   28632   28626      24   28632   28629      25   28638
   28635      24   28641   28635      24   28641   28638      25   28647   28644
      24   28650   28644      24   28650   28647      25   28656   28653      24
   28659   28653      24   28659   28656      25   28665   28662      24   28668
   28662      24   28668   28665      25   28674   28671      24   28677   28671
      24   28677   28674      25   28683   28680      24   28686   28680      24
   28686   28683      25   28692   28689      24   28695   28689      24   28695
   28692      25   28701   28698      24   28704   28698      24   28704   28701
      25   28710   28707      24   28713   28707      24   28713   28710      25
   28719   28716      24   28722   28716      24   28722   28719      25   28728
   28725      24   28731   28725      24   28731   28728      25   28737   28734
      24   28740   28734      24   28740   28737      25   28746   28743      24
   28749   28743      24   28749   28746      25   28755   28752      24   28758
   28752      24   28758   28755      25   28764   28761      24   28767   28761
      24   28767   28764      25   28773   28770      24   28776   28770      24
   28776   28773      25   28782   28779      24   28785   28779      24   28785
   28782      25   28791   28788      24   28794   28788      24   28794   28791
      25   28800   28797      24   28803   28797      24   28803   28800      25
   28809   28806      24   28812   28806      24   28812   28809      25   28818
   28815      24   28821   28815      24   28821   28818      25   28827   28824
      24   28830   28824      24   28830   28827      25   28836   28833      24
   28839   28833      24   28839   28836      25   28845   28842      24   28848
   28842      24   28848   28845      25   28854   28851      24   28857   28851
      24   28857   28854      25   28863   28860      24   28866   28860      24
   28866   28863      25   28872   28869      24   28875   28869      24   28875
   28872      25   28881   28878      24   28884   28878      24   28884   28881
      25   28890   28887      24   28893   28887      24   28893   28890      25
   28899   28896      24   28902   28896      24   28902   28899      25   28908
   28905      24   28911   28905      24   28911   28908      25   28917   28914
      24   28920   28914      24   28920   28917      25   28926   28923      24
   28929   28923      24   28929   28926      25   28935   28932      24   28938
   28932      24   28938   28935      25   28944   28941      24   28947   28941
      24   28947   28944      25   28953   28950      24   28956   28950      24
   28956   28953      25   28962   28959      24   28965   28959      24   28965
   28962      25   28971   28968      24   28974   28968      24   28974   28971
      25   28980   28977      24   28983   28977      24   28983   28980      25
   28989   28986      24   28992   28986      24   28992   28989      25   28998
   28995      24   29001   28995      24   29001   28998      25   29007   29004
      24   29010   29004      24   29010   29007      25   29016   29013      24
   29019   29013      24   29019   29016      25   29025   29022      24   29028
   29022      24   29028   29025      25   29034   29031      24   29037   29031
      24   29037   29034      25   29043   29040      24   29046   29040      24
   29046   29043      25   29052   29049      24   29055   29049      24   29055
   29052      25   29061   29058      24   29064   29058      24   29064   29061
      25   29070   29067      24   29073   29067      24   29073   29070      25
   29079   29076      24   29082   29076      24   29082   29079      25   29088
   29085      24   29091   29085      24   29091   29088      25   29097   29094
      24   29100   29094      24   29100   29097      25   29106   29103      24
   29109   29103      24   29109   29106      25   29115   29112      24   29118
   29112      24   29118   29115      25   29124   29121      24   29127   29121
      24   29127   29124      25   29133   29130      24   29136   29130      24
   29136   29133      25   29142   29139      24   29145   29139      24   29145
   29142      25   29151   29148      24   29154   29148      24   29154   29151
      25   29160   29157      24   29163   29157      24   29163   29160      25
   29169   29166      24   29172   29166      24   29172   29169      25   29178
   29175      24   29181   29175      24   29181   29178      25   29187   29184
      24   29190   29184      24   29190   29187      25   29196   29193      24
   29199   29193      24   29199   29196      25   29205   29202      24   29208
   29202      24   29208   29205      25   29214   29211      24   29217   29211
      24   29217   29214      25   29223   29220      24   29226   29220      24
   29226   29223      25   29232   29229      24   29235   29229      24   29235
   29232      25   29241   29238      24   29244   29238      24   29244   29241
      25   29250   29247      24   29253   29247      24   29253   29250      25
   29259   29256      24   29262   29256      24   29262   29259      25   29268
   29265      24   29271   29265      24   29271   29268      25   29277   29274
      24   29280   29274      24   29280   29277      25   29286   29283      24
   29289   29283      24   29289   29286      25   29295   29292      24   29298
   29292      24   29298   29295      25   29304   29301      24   29307   29301
      24   29307   29304      25   29313   29310      24   29316   29310      24
   29316   29313      25   29322   29319      24   29325   29319      24   29325
   29322      25   29331   29328      24   29334   29328      24   29334   29331
      25   29340   29337      24   29343   29337      24   29343   29340      25
   29349   29346      24   29352   29346      24   29352   29349      25   29358
   29355      24   29361   29355      24   29361   29358      25   29367   29364
      24   29370   29364      24   29370   29367      25   29376   29373      24
   29379   29373      24   29379   29376      25   29385   29382      24   29388
   29382      24   29388   29385      25   29394   29391      24   29397   29391
      24   29397   29394      25   29403   29400      24   29406   29400      24
   29406   29403      25   29412   29409      24   29415   29409      24   29415
   29412      25   29421   29418      24   29424   29418      24   29424   29421
      25   29430   29427      24   29433   29427      24   29433   29430      25
   29439   29436      24   29442   29436      24   29442   29439      25   29448
   29445      24   29451   29445      24   29451   29448      25   29457   29454
      24   29460   29454      24   29460   29457      25   29466   29463      24
   29469   29463      24   29469   29466      25   29475   29472      24   29478
   29472      24   29478   29475      25   29484   29481      24   29487   29481
      24   29487   29484      25   29493   29490      24   29496   29490      24
   29496   29493      25   29502   29499      24   29505   29499      24   29505
   29502      25   29511   29508      24   29514   29508      24   29514   29511
      25   29520   29517      24   29523   29517      24   29523   29520      25
   29529   29526      24   29532   29526      24   29532   29529      25   29538
   29535      24   29541   29535      24   29541   29538      25   29547   29544
      24   29550   29544      24   29550   29547      25   29556   29553      24
   29559   29553      24   29559   29556      25   29565   29562      24   29568
   29562      24   29568   29565      25   29574   29571      24   29577   29571
      24   29577   29574      25   29583   29580      24   29586   29580      24
   29586   29583      25   29592   29589      24   29595   29589      24   29595
   29592      25   29601   29598      24   29604   29598      24   29604   29601
      25   29610   29607      24   29613   29607      24   29613   29610      25
   29619   29616      24   29622   29616      24   29622   29619      25   29628
   29625      24   29631   29625      24   29631   29628      25   29637   29634
      24   29640   29634      24   29640   29637      25   29646   29643      24
   29649   29643      24   29649   29646      25   29655   29652      24   29658
   29652      24   29658   29655      25   29664   29661      24   29667   29661
      24   29667   29664      25   29673   29670      24   29676   29670      24
   29676   29673      25   29682   29679      24   29685   29679      24   29685
   29682      25   29691   29688      24   29694   29688      24   29694   29691
      25   29700   29697      24   29703   29697      24   29703   29700      25
   29709   29706      24   29712   29706      24   29712   29709      25   29718
   29715      24   29721   29715      24   29721   29718      25   29727   29724
      24   29730   29724      24   29730   29727      25   29736   29733      24
   29739   29733      24   29739   29736      25   29745   29742      24   29748
   29742      24   29748   29745      25   29754   29751      24   29757   29751
      24   29757   29754      25   29763   29760      24   29766   29760      24
   29766   29763      25   29772   29769      24   29775   29769      24   29775
   29772      25   29781   29778      24   29784   29778      24   29784   29781
      25   29790   29787      24   29793   29787      24   29793   29790      25
   29799   29796      24   29802   29796      24   29802   29799      25   29808
   29805      24   29811   29805      24   29811   29808      25   29817   29814
      24   29820   29814      24   29820   29817      25   29826   29823      24
   29829   29823      24   29829   29826      25   29835   29832      24   29838
   29832      24   29838   29835      25   29844   29841      24   29847   29841
      24   29847   29844      25   29853   29850      24   29856   29850      24
   29856   29853      25   29862   29859      24   29865   29859      24   29865
   29862      25   29871   29868      24   29874   29868      24   29874   29871
      25   29880   29877      24   29883   29877      24   29883   29880      25
   29889   29886      24   29892   29886      24   29892   29889      25   29898
   29895      24   29901   29895      24   29901   29898      25   29907   29904
      24   29910   29904      24   29910   29907      25   29916   29913      24
   29919   29913      24   29919   29916      25   29925   29922      24   29928
   29922      24   29928   29925      25   29934   29931      24   29937   29931
      24   29937   29934      25   29943   29940      24   29946   29940      24
   29946   29943      25   29952   29949      24   29955   29949      24   29955
   29952      25   29961   29958      24   29964   29958      24   29964   29961
      25   29970   29967      24   29973   29967      24   29973   29970      25
   29979   29976      24   29982   29976      24   29982   29979      25   29988
   29985      24   29991   29985      24   29991   29988      25   29997   29994
      24   30000   29994      24   30000   29997      25   30006   30003      24
   30009   30003      24   30009   30006      25   30015   30012      24   30018
   30012      24   30018   30015      25   30024   30021      24   30027   30021
      24   30027   30024      25   30033   30030      24   30036   30030      24
   30036   30033      25   30042   30039      24   30045   30039      24   30045
   30042      25   30051   30048      24   30054   30048      24   30054   30051
      25   30060   30057      24   30063   30057      24   30063   30060      25
   30069   30066      24   30072   30066      24   30072   30069      25   30078
   30075      24   30081   30075      24   30081   30078      25   30087   30084
      24   30090   30084      24   30090   30087      25   30096   30093      24
   30099   30093      24   30099   30096      25   30105   30102      24   30108
   30102      24   30108   30105      25   30114   30111      24   30117   30111
      24   30117   30114      25   30123   30120      24   30126   30120      24
   30126   30123      25   30132   30129      24   30135   30129      24   30135
   30132      25   30141   30138      24   30144   30138      24   30144   30141
      25   30150   30147      24   30153   30147      24   30153   30150      25
   30159   30156      24   30162   30156      24   30162   30159      25   30168
   30165      24   30171   30165      24   30171   30168      25   30177   30174
      24   30180   30174      24   30180   30177      25   30186   30183      24
   30189   30183      24   30189   30186      25   30195   30192      24   30198
   30192      24   30198   30195      25   30204   30201      24   30207   30201
      24   30207   30204      25   30213   30210      24   30216   30210      24
   30216   30213      25   30222   30219      24   30225   30219      24   30225
   30222      25   30231   30228      24   30234   30228      24   30234   30231
      25   30240   30237      24   30243   30237      24   30243   30240      25
   30249   30246      24   30252   30246      24   30252   30249      25   30258
   30255      24   30261   30255      24   30261   30258      25   30267   30264
      24   30270   30264      24   30270   30267      25   30276   30273      24
   30279   30273      24   30279   30276      25   30285   30282      24   30288
   30282      24   30288   30285      25   30294   30291      24   30297   30291
      24   30297   30294      25   30303   30300      24   30306   30300      24
   30306   30303      25   30312   30309      24   30315   30309      24   30315
   30312      25   30321   30318      24   30324   30318      24   30324   30321
      25   30330   30327      24   30333   30327      24   30333   30330      25
   30339   30336      24   30342   30336      24   30342   30339      25   30348
   30345      24   30351   30345      24   30351   30348      25   30357   30354
      24   30360   30354      24   30360   30357      25   30366   30363      24
   30369   30363      24   30369   30366      25   30375   30372      24   30378
   30372      24   30378   30375      25   30384   30381      24   30387   30381
      24   30387   30384      25   30393   30390      24   30396   30390      24
   30396   30393      25   30402   30399      24   30405   30399      24   30405
   30402      25   30411   30408      24   30414   30408      24   30414   30411
      25   30420   30417      24   30423   30417      24   30423   30420      25
   30429   30426      24   30432   30426      24   30432   30429      25   30438
   30435      24   30441   30435      24   30441   30438      25   30447   30444
      24   30450   30444      24   30450   30447      25   30456   30453      24
   30459   30453      24   30459   30456      25   30465   30462      24   30468
   30462      24   30468   30465      25   30474   30471      24   30477   30471
      24   30477   30474      25   30483   30480      24   30486   30480      24
   30486   30483      25   30492   30489      24   30495   30489      24   30495
   30492      25   30501   30498      24   30504   30498      24   30504   30501
      25   30510   30507      24   30513   30507      24   30513   30510      25
   30519   30516      24   30522   30516      24   30522   30519      25   30528
   30525      24   30531   30525      24   30531   30528      25   30537   30534
      24   30540   30534      24   30540   30537      25   30546   30543      24
   30549   30543      24   30549   30546      25   30555   30552      24   30558
   30552      24   30558   30555      25   30564   30561      24   30567   30561
      24   30567   30564      25   30573   30570      24   30576   30570      24
   30576   30573      25   30582   30579      24   30585   30579      24   30585
   30582      25   30591   30588      24   30594   30588      24   30594   30591
      25   30600   30597      24   30603   30597      24   30603   30600      25
   30609   30606      24   30612   30606      24   30612   30609      25   30618
   30615      24   30621   30615      24   30621   30618      25   30627   30624
      24   30630   30624      24   30630   30627      25   30636   30633      24
   30639   30633      24   30639   30636      25   30645   30642      24   30648
   30642      24   30648   30645      25   30654   30651      24   30657   30651
      24   30657   30654      25   30663   30660      24   30666   30660      24
   30666   30663      25   30672   30669      24   30675   30669      24   30675
   30672      25   30681   30678      24   30684   30678      24   30684   30681
      25   30690   30687      24   30693   30687      24   30693   30690      25
   30699   30696      24   30702   30696      24   30702   30699      25   30708
   30705      24   30711   30705      24   30711   30708      25   30717   30714
      24   30720   30714      24   30720   30717      25   30726   30723      24
   30729   30723      24   30729   30726      25   30735   30732      24   30738
   30732      24   30738   30735      25   30744   30741      24   30747   30741
      24   30747   30744      25   30753   30750      24   30756   30750      24
   30756   30753      25   30762   30759      24   30765   30759      24   30765
   30762      25   30771   30768      24   30774   30768      24   30774   30771
      25   30780   30777      24   30783   30777      24   30783   30780      25
   30789   30786      24   30792   30786      24   30792   30789      25   30798
   30795      24   30801   30795      24   30801   30798      25   30807   30804
      24   30810   30804      24   30810   30807      25   30816   30813      24
   30819   30813      24   30819   30816      25   30825   30822      24   30828
   30822      24   30828   30825      25   30834   30831      24   30837   30831
      24   30837   30834      25   30843   30840      24   30846   30840      24
   30846   30843      25   30852   30849      24   30855   30849      24   30855
   30852      25   30861   30858      24   30864   30858      24   30864   30861
      25   30870   30867      24   30873   30867      24   30873   30870      25
   30879   30876      24   30882   30876      24   30882   30879      25   30888
   30885      24   30891   30885      24   30891   30888      25   30897   30894
      24   30900   30894      24   30900   30897      25   30906   30903      24
   30909   30903      24   30909   30906      25   30915   30912      24   30918
   30912      24   30918   30915      25   30924   30921      24   30927   30921
      24   30927   30924      25   30933   30930      24   30936   30930      24
   30936   30933      25   30942   30939      24   30945   30939      24   30945
   30942      25   30951   30948      24   30954   30948      24   30954   30951
      25   30960   30957      24   30963   30957      24   30963   30960      25
   30969   30966      24   30972   30966      24   30972   30969      25   30978
   30975      24   30981   30975      24   30981   30978      25   30987   30984
      24   30990   30984      24   30990   30987      25   30996   30993      24
   30999   30993      24   30999   30996      25   31005   31002      24   31008
   31002      24   31008   31005      25   31014   31011      24   31017   31011
      24   31017   31014      25   31023   31020      24   31026   31020      24
   31026   31023      25   31032   31029      24   31035   31029      24   31035
   31032      25   31041   31038      24   31044   31038      24   31044   31041
      25   31050   31047      24   31053   31047      24   31053   31050      25
   31059   31056      24   31062   31056      24   31062   31059      25   31068
   31065      24   31071   31065      24   31071   31068      25   31077   31074
      24   31080   31074      24   31080   31077      25   31086   31083      24
   31089   31083      24   31089   31086      25   31095   31092      24   31098
   31092      24   31098   31095      25   31104   31101      24   31107   31101
      24   31107   31104      25   31113   31110      24   31116   31110      24
   31116   31113      25   31122   31119      24   31125   31119      24   31125
   31122      25   31131   31128      24   31134   31128      24   31134   31131
      25   31140   31137      24   31143   31137      24   31143   31140      25
   31149   31146      24   31152   31146      24   31152   31149      25   31158
   31155      24   31161   31155      24   31161   31158      25   31167   31164
      24   31170   31164      24   31170   31167      25   31176   31173      24
   31179   31173      24   31179   31176      25   31185   31182      24   31188
   31182      24   31188   31185      25   31194   31191      24   31197   31191
      24   31197   31194      25   31203   31200      24   31206   31200      24
   31206   31203      25   31212   31209      24   31215   31209      24   31215
   31212      25   31221   31218      24   31224   31218      24   31224   31221
      25   31230   31227      24   31233   31227      24   31233   31230      25
   31239   31236      24   31242   31236      24   31242   31239      25   31248
   31245      24   31251   31245      24   31251   31248      25   31257   31254
      24   31260   31254      24   31260   31257      25   31266   31263      24
   31269   31263      24   31269   31266      25   31275   31272      24   31278
   31272      24   31278   31275      25   31284   31281      24   31287   31281
      24   31287   31284      25   31293   31290      24   31296   31290      24
   31296   31293      25   31302   31299      24   31305   31299      24   31305
   31302      25   31311   31308      24   31314   31308      24   31314   31311
      25   31320   31317      24   31323   31317      24   31323   31320      25
   31329   31326      24   31332   31326      24   31332   31329      25   31338
   31335      24   31341   31335      24   31341   31338      25   31347   31344
      24   31350   31344      24   31350   31347      25   31356   31353      24
   31359   31353      24   31359   31356      25   31365   31362      24   31368
   31362      24   31368   31365      25   31374   31371      24   31377   31371
      24   31377   31374      25   31383   31380      24   31386   31380      24
   31386   31383      25   31392   31389      24   31395   31389      24   31395
   31392      25   31401   31398      24   31404   31398      24   31404   31401
      25   31410   31407      24   31413   31407      24   31413   31410      25
   31419   31416      24   31422   31416      24   31422   31419      25   31428
   31425      24   31431   31425      24   31431   31428      25   31437   31434
      24   31440   31434      24   31440   31437      25   31446   31443      24
   31449   31443      24   31449   31446      25   31455   31452      24   31458
   31452      24   31458   31455      25   31464   31461      24   31467   31461
      24   31467   31464      25   31473   31470      24   31476   31470      24
   31476   31473      25   31482   31479      24   31485   31479      24   31485
   31482      25   31491   31488      24   31494   31488      24   31494   31491
      25   31500   31497      24   31503   31497      24   31503   31500      25
   31509   31506      24   31512   31506      24   31512   31509      25   31518
   31515      24   31521   31515      24   31521   31518      25   31527   31524
      24   31530   31524      24   31530   31527      25   31536   31533      24
   31539   31533      24   31539   31536      25   31545   31542      24   31548
   31542      24   31548   31545      25   31554   31551      24   31557   31551
      24   31557   31554      25   31563   31560      24   31566   31560      24
   31566   31563      25   31572   31569      24   31575   31569      24   31575
   31572      25   31581   31578      24   31584   31578      24   31584   31581
      25   31590   31587      24   31593   31587      24   31593   31590      25
   31599   31596      24   31602   31596      24   31602   31599      25   31608
   31605      24   31611   31605      24   31611   31608      25   31617   31614
      24   31620   31614      24   31620   31617      25   31626   31623      24
   31629   31623      24   31629   31626      25   31635   31632      24   31638
   31632      24   31638   31635      25   31644   31641      24   31647   31641
      24   31647   31644      25   31653   31650      24   31656   31650      24
   31656   31653      25   31662   31659      24   31665   31659      24   31665
   31662      25   31671   31668      24   31674   31668      24   31674   31671
      25   31680   31677      24   31683   31677      24   31683   31680      25
   31689   31686      24   31692   31686      24   31692   31689      25   31698
   31695      24   31701   31695      24   31701   31698      25   31707   31704
      24   31710   31704      24   31710   31707      25   31716   31713      24
   31719   31713      24   31719   31716      25   31725   31722      24   31728
   31722      24   31728   31725      25   31734   31731      24   31737   31731
      24   31737   31734      25   31743   31740      24   31746   31740      24
   31746   31743      25   31752   31749      24   31755   31749      24   31755
   31752      25   31761   31758      24   31764   31758      24   31764   31761
      25   31770   31767      24   31773   31767      24   31773   31770      25
   31779   31776      24   31782   31776      24   31782   31779      25   31788
   31785      24   31791   31785      24   31791   31788      25   31797   31794
      24   31800   31794      24   31800   31797      25   31806   31803      24
   31809   31803      24   31809   31806      25   31815   31812      24   31818
   31812      24   31818   31815      25   31824   31821      24   31827   31821
      24   31827   31824      25   31833   31830      24   31836   31830      24
   31836   31833      25   31842   31839      24   31845   31839      24   31845
   31842      25   31851   31848      24   31854   31848      24   31854   31851
      25   31860   31857      24   31863   31857      24   31863   31860      25
   31869   31866      24   31872   31866      24   31872   31869      25   31878
   31875      24   31881   31875      24   31881   31878      25   31887   31884
      24   31890   31884      24   31890   31887      25   31896   31893      24
   31899   31893      24   31899   31896      25   31905   31902      24   31908
   31902      24   31908   31905      25   31914   31911      24   31917   31911
      24   31917   31914      25   31923   31920      24   31926   31920      24
   31926   31923      25   31932   31929      24   31935   31929      24   31935
   31932      25   31941   31938      24   31944   31938      24   31944   31941
      25   31950   31947      24   31953   31947      24   31953   31950      25
   31959   31956      24   31962   31956      24   31962   31959      25   31968
   31965      24   31971   31965      24   31971   31968      25   31977   31974
      24   31980   31974      24   31980   31977      25   31986   31983      24
   31989   31983      24   31989   31986      25   31995   31992      24   31998
   31992      24   31998   31995      25   32004   32001      24   32007   32001
      24   32007   32004      25   32013   32010      24   32016   32010      24
   32016   32013      25   32022   32019      24   32025   32019      24   32025
   32022      25   32031   32028      24   32034   32028      24   32034   32031
      25   32040   32037      24   32043   32037      24   32043   32040      25
   32049   32046      24   32052   32046      24   32052   32049      25   32058
   32055      24   32061   32055      24   32061   32058      25   32067   32064
      24   32070   32064      24   32070   32067      25   32076   32073      24
   32079   32073      24   32079   32076      25   32085   32082      24   32088
   32082      24   32088   32085      25   32094   32091      24   32097   32091
      24   32097   32094      25   32103   32100      24   32106   32100      24
   32106   32103      25   32112   32109      24   32115   32109      24   32115
   32112      25   32121   32118      24   32124   32118      24   32124   32121
      25   32130   32127      24   32133   32127      24   32133   32130      25
   32139   32136      24   32142   32136      24   32142   32139      25   32148
   32145      24   32151   32145      24   32151   32148      25   32157   32154
      24   32160   32154      24   32160   32157      25   32166   32163      24
   32169   32163      24   32169   32166      25   32175   32172      24   32178
   32172      24   32178   32175      25   32184   32181      24   32187   32181
      24   32187   32184      25   32193   32190      24   32196   32190      24
   32196   32193      25   32202   32199      24   32205   32199      24   32205
   32202      25   32211   32208      24   32214   32208      24   32214   32211
      25   32220   32217      24   32223   32217      24   32223   32220      25
   32229   32226      24   32232   32226      24   32232   32229      25   32238
   32235      24   32241   32235      24   32241   32238      25   32247   32244
      24   32250   32244      24   32250   32247      25   32256   32253      24
   32259   32253      24   32259   32256      25   32265   32262      24   32268
   32262      24   32268   32265      25   32274   32271      24   32277   32271
      24   32277   32274      25   32283   32280      24   32286   32280      24
   32286   32283      25   32292   32289      24   32295   32289      24   32295
   32292      25   32301   32298      24   32304   32298      24   32304   32301
      25   32310   32307      24   32313   32307      24   32313   32310      25
   32319   32316      24   32322   32316      24   32322   32319      25   32328
   32325      24   32331   32325      24   32331   32328      25   32337   32334
      24   32340   32334      24   32340   32337      25   32346   32343      24
   32349   32343      24   32349   32346      25   32355   32352      24   32358
   32352      24   32358   32355      25   32364   32361      24   32367   32361
      24   32367   32364      25   32373   32370      24   32376   32370      24
   32376   32373      25   32382   32379      24   32385   32379      24   32385
   32382      25   32391   32388      24   32394   32388      24   32394   32391
      25   32400   32397      24   32403   32397      24   32403   32400      25
   32409   32406      24   32412   32406      24   32412   32409      25   32418
   32415      24   32421   32415      24   32421   32418      25   32427   32424
      24   32430   32424      24   32430   32427      25   32436   32433      24
   32439   32433      24   32439   32436      25   32445   32442      24   32448
   32442      24   32448   32445      25   32454   32451      24   32457   32451
      24   32457   32454      25   32463   32460      24   32466   32460      24
   32466   32463      25   32472   32469      24   32475   32469      24   32475
   32472      25   32481   32478      24   32484   32478      24   32484   32481
      25   32490   32487      24   32493   32487      24   32493   32490      25
   32499   32496      24   32502   32496      24   32502   32499      25   32508
   32505      24   32511   32505      24   32511   32508      25   32517   32514
      24   32520   32514      24   32520   32517      25   32526   32523      24
   32529   32523      24   32529   32526      25   32535   32532      24   32538
   32532      24   32538   32535      25   32544   32541      24   32547   32541
      24   32547   32544      25   32553   32550      24   32556   32550      24
   32556   32553      25   32562   32559      24   32565   32559      24   32565
   32562      25   32571   32568      24   32574   32568      24   32574   32571
      25   32580   32577      24   32583   32577      24   32583   32580      25
   32589   32586      24   32592   32586      24   32592   32589      25   32598
   32595      24   32601   32595      24   32601   32598      25   32607   32604
      24   32610   32604      24   32610   32607      25   32616   32613      24
   32619   32613      24   32619   32616      25   32625   32622      24   32628
   32622      24   32628   32625      25   32634   32631      24   32637   32631
      24   32637   32634      25   32643   32640      24   32646   32640      24
   32646   32643      25   32652   32649      24   32655   32649      24   32655
   32652      25   32661   32658      24   32664   32658      24   32664   32661
      25   32670   32667      24   32673   32667      24   32673   32670      25
   32679   32676      24   32682   32676      24   32682   32679      25   32688
   32685      24   32691   32685      24   32691   32688      25   32697   32694
      24   32700   32694      24   32700   32697      25   32706   32703      24
   32709   32703      24   32709   32706      25   32715   32712      24   32718
   32712      24   32718   32715      25   32724   32721      24   32727   32721
      24   32727   32724      25   32733   32730      24   32736   32730      24
   32736   32733      25   32742   32739      24   32745   32739      24   32745
   32742      25   32751   32748      24   32754   32748      24   32754   32751
      25   32760   32757      24   32763   32757      24   32763   32760      25
   32769   32766      24   32772   32766      24   32772   32769      25   32778
   32775      24   32781   32775      24   32781   32778      25   32787   32784
      24   32790   32784      24   32790   32787      25   32796   32793      24
   32799   32793      24   32799   32796      25   32805   32802      24   32808
   32802      24   32808   32805      25   32814   32811      24   32817   32811
      24   32817   32814      25   32823   32820      24   32826   32820      24
   32826   32823      25   32832   32829      24   32835   32829      24   32835
   32832      25   32841   32838      24   32844   32838      24   32844   32841
      25   32850   32847      24   32853   32847      24   32853   32850      25
   32859   32856      24   32862   32856      24   32862   32859      25   32868
   32865      24   32871   32865      24   32871   32868      25   32877   32874
      24   32880   32874      24   32880   32877      25   32886   32883      24
   32889   32883      24   32889   32886      25   32895   32892      24   32898
   32892      24   32898   32895      25   32904   32901      24   32907   32901
      24   32907   32904      25   32913   32910      24   32916   32910      24
   32916   32913      25   32922   32919      24   32925   32919      24   32925
   32922      25   32931   32928      24   32934   32928      24   32934   32931
      25   32940   32937      24   32943   32937      24   32943   32940      25
   32949   32946      24   32952   32946      24   32952   32949      25   32958
   32955      24   32961   32955      24   32961   32958      25   32967   32964
      24   32970   32964      24   32970   32967      25   32976   32973      24
   32979   32973      24   32979   32976      25   32985   32982      24   32988
   32982      24   32988   32985      25   32994   32991      24   32997   32991
      24   32997   32994      25   33003   33000      24   33006   33000      24
   33006   33003      25   33012   33009      24   33015   33009      24   33015
   33012      25   33021   33018      24   33024   33018      24   33024   33021
      25   33030   33027      24   33033   33027      24   33033   33030      25
   33039   33036      24   33042   33036      24   33042   33039      25   33048
   33045      24   33051   33045      24   33051   33048      25   33057   33054
      24   33060   33054      24   33060   33057      25   33066   33063      24
   33069   33063      24   33069   33066      25   33075   33072      24   33078
   33072      24   33078   33075      25   33084   33081      24   33087   33081
      24   33087   33084      25   33093   33090      24   33096   33090      24
   33096   33093      25   33102   33099      24   33105   33099      24   33105
   33102      25   33111   33108      24   33114   33108      24   33114   33111
      25   33120   33117      24   33123   33117      24   33123   33120      25
   33129   33126      24   33132   33126      24   33132   33129      25   33138
   33135      24   33141   33135      24   33141   33138      25   33147   33144
      24   33150   33144      24   33150   33147      25   33156   33153      24
   33159   33153      24   33159   33156      25   33165   33162      24   33168
   33162      24   33168   33165      25   33174   33171      24   33177   33171
      24   33177   33174      25   33183   33180      24   33186   33180      24
   33186   33183      25   33192   33189      24   33195   33189      24   33195
   33192      25   33201   33198      24   33204   33198      24   33204   33201
      25   33210   33207      24   33213   33207      24   33213   33210      25
   33219   33216      24   33222   33216      24   33222   33219      25   33228
   33225      24   33231   33225      24   33231   33228      25   33237   33234
      24   33240   33234      24   33240   33237      25   33246   33243      24
   33249   33243      24   33249   33246      25   33255   33252      24   33258
   33252      24   33258   33255      25   33264   33261      24   33267   33261
      24   33267   33264      25   33273   33270      24   33276   33270      24
   33276   33273      25   33282   33279      24   33285   33279      24   33285
   33282      25   33291   33288      24   33294   33288      24   33294   33291
      25   33300   33297      24   33303   33297      24   33303   33300      25
   33309   33306      24   33312   33306      24   33312   33309      25   33318
   33315      24   33321   33315      24   33321   33318      25   33327   33324
      24   33330   33324      24   33330   33327      25   33336   33333      24
   33339   33333      24   33339   33336      25   33345   33342      24   33348
   33342      24   33348   33345      25   33354   33351      24   33357   33351
      24   33357   33354      25   33363   33360      24   33366   33360      24
   33366   33363      25   33372   33369      24   33375   33369      24   33375
   33372      25   33381   33378      24   33384   33378      24   33384   33381
      25   33390   33387      24   33393   33387      24   33393   33390      25
   33399   33396      24   33402   33396      24   33402   33399      25   33408
   33405      24   33411   33405      24   33411   33408      25   33417   33414
      24   33420   33414      24   33420   33417      25   33426   33423      24
   33429   33423      24   33429   33426      25   33435   33432      24   33438
   33432      24   33438   33435      25   33444   33441      24   33447   33441
      24   33447   33444      25   33453   33450      24   33456   33450      24
   33456   33453      25   33462   33459      24   33465   33459      24   33465
   33462      25   33471   33468      24   33474   33468      24   33474   33471
      25   33480   33477      24   33483   33477      24   33483   33480      25
   33489   33486      24   33492   33486      24   33492   33489      25   33498
   33495      24   33501   33495      24   33501   33498      25   33507   33504
      24   33510   33504      24   33510   33507      25   33516   33513      24
   33519   33513      24   33519   33516      25   33525   33522      24   33528
   33522      24   33528   33525      25   33534   33531      24   33537   33531
      24   33537   33534      25   33543   33540      24   33546   33540      24
   33546   33543      25   33552   33549      24   33555   33549      24   33555
   33552      25   33561   33558      24   33564   33558      24   33564   33561
      25   33570   33567      24   33573   33567      24   33573   33570      25
   33579   33576      24   33582   33576      24   33582   33579      25   33588
   33585      24   33591   33585      24   33591   33588      25   33597   33594
      24   33600   33594      24   33600   33597      25   33606   33603      24
   33609   33603      24   33609   33606      25   33615   33612      24   33618
   33612      24   33618   33615      25   33624   33621      24   33627   33621
      24   33627   33624      25   33633   33630      24   33636   33630      24
   33636   33633      25   33642   33639      24   33645   33639      24   33645
   33642      25   33651   33648      24   33654   33648      24   33654   33651
      25   33660   33657      24   33663   33657      24   33663   33660      25
   33669   33666      24   33672   33666      24   33672   33669      25   33678
   33675      24   33681   33675      24   33681   33678      25   33687   33684
      24   33690   33684      24   33690   33687      25   33696   33693      24
   33699   33693      24   33699   33696      25   33705   33702      24   33708
   33702      24   33708   33705      25   33714   33711      24   33717   33711
      24   33717   33714      25   33723   33720      24   33726   33720      24
   33726   33723      25   33732   33729      24   33735   33729      24   33735
   33732      25   33741   33738      24   33744   33738      24   33744   33741
      25   33750   33747      24   33753   33747      24   33753   33750      25
   33759   33756      24   33762   33756      24   33762   33759      25   33768
   33765      24   33771   33765      24   33771   33768      25   33777   33774
      24   33780   33774      24   33780   33777      25   33786   33783      24
   33789   33783      24   33789   33786      25   33795   33792      24   33798
   33792      24   33798   33795      25   33804   33801      24   33807   33801
      24   33807   33804      25   33813   33810      24   33816   33810      24
   33816   33813      25   33822   33819      24   33825   33819      24   33825
   33822      25   33831   33828      24   33834   33828      24   33834   33831
      25   33840   33837      24   33843   33837      24   33843   33840      25
   33849   33846      24   33852   33846      24   33852   33849      25   33858
   33855      24   33861   33855      24   33861   33858      25   33867   33864
      24   33870   33864      24   33870   33867      25   33876   33873      24
   33879   33873      24   33879   33876      25   33885   33882      24   33888
   33882      24   33888   33885      25   33894   33891      24   33897   33891
      24   33897   33894      25   33903   33900      24   33906   33900      24
   33906   33903      25   33912   33909      24   33915   33909      24   33915
   33912      25   33921   33918      24   33924   33918      24   33924   33921
      25   33930   33927      24   33933   33927      24   33933   33930      25
   33939   33936      24   33942   33936      24   33942   33939      25   33948
   33945      24   33951   33945      24   33951   33948      25   33957   33954
      24   33960   33954      24   33960   33957      25   33966   33963      24
   33969   33963      24   33969   33966      25   33975   33972      24   33978
   33972      24   33978   33975      25   33984   33981      24   33987   33981
      24   33987   33984      25   33993   33990      24   33996   33990      24
   33996   33993      25   34002   33999      24   34005   33999      24   34005
   34002      25   34011   34008      24   34014   34008      24   34014   34011
      25   34020   34017      24   34023   34017      24   34023   34020      25
   34029   34026      24   34032   34026      24   34032   34029      25   34038
   34035      24   34041   34035      24   34041   34038      25   34047   34044
      24   34050   34044      24   34050   34047      25   34056   34053      24
   34059   34053      24   34059   34056      25   34065   34062      24   34068
   34062      24   34068   34065      25   34074   34071      24   34077   34071
      24   34077   34074      25   34083   34080      24   34086   34080      24
   34086   34083      25   34092   34089      24   34095   34089      24   34095
   34092      25   34101   34098      24   34104   34098      24   34104   34101
      25   34110   34107      24   34113   34107      24   34113   34110      25
   34119   34116      24   34122   34116      24   34122   34119      25   34128
   34125      24   34131   34125      24   34131   34128      25   34137   34134
      24   34140   34134      24   34140   34137      25   34146   34143      24
   34149   34143      24   34149   34146      25   34155   34152      24   34158
   34152      24   34158   34155      25   34164   34161      24   34167   34161
      24   34167   34164      25   34173   34170      24   34176   34170      24
   34176   34173      25   34182   34179      24   34185   34179      24   34185
   34182      25   34191   34188      24   34194   34188      24   34194   34191
      25   34200   34197      24   34203   34197      24   34203   34200      25
   34209   34206      24   34212   34206      24   34212   34209      25   34218
   34215      24   34221   34215      24   34221   34218      25   34227   34224
      24   34230   34224      24   34230   34227      25   34236   34233      24
   34239   34233      24   34239   34236      25   34245   34242      24   34248
   34242      24   34248   34245      25   34254   34251      24   34257   34251
      24   34257   34254      25   34263   34260      24   34266   34260      24
   34266   34263      25   34272   34269      24   34275   34269      24   34275
   34272      25   34281   34278      24   34284   34278      24   34284   34281
      25   34290   34287      24   34293   34287      24   34293   34290      25
   34299   34296      24   34302   34296      24   34302   34299      25   34308
   34305      24   34311   34305      24   34311   34308      25   34317   34314
      24   34320   34314      24   34320   34317      25   34326   34323      24
   34329   34323      24   34329   34326      25   34335   34332      24   34338
   34332      24   34338   34335      25   34344   34341      24   34347   34341
      24   34347   34344      25   34353   34350      24   34356   34350      24
   34356   34353      25   34362   34359      24   34365   34359      24   34365
   34362      25   34371   34368      24   34374   34368      24   34374   34371
      25   34380   34377      24   34383   34377      24   34383   34380      25
   34389   34386      24   34392   34386      24   34392   34389      25   34398
   34395      24   34401   34395      24   34401   34398      25   34407   34404
      24   34410   34404      24   34410   34407      25   34416   34413      24
   34419   34413      24   34419   34416      25   34425   34422      24   34428
   34422      24   34428   34425      25   34434   34431      24   34437   34431
      24   34437   34434      25   34443   34440      24   34446   34440      24
   34446   34443      25   34452   34449      24   34455   34449      24   34455
   34452      25   34461   34458      24   34464   34458      24   34464   34461
      25   34470   34467      24   34473   34467      24   34473   34470      25
   34479   34476      24   34482   34476      24   34482   34479      25   34488
   34485      24   34491   34485      24   34491   34488      25   34497   34494
      24   34500   34494      24   34500   34497      25   34506   34503      24
   34509   34503      24   34509   34506      25   34515   34512      24   34518
   34512      24   34518   34515      25   34524   34521      24   34527   34521
      24   34527   34524      25   34533   34530      24   34536   34530      24
   34536   34533      25   34542   34539      24   34545   34539      24   34545
   34542      25   34551   34548      24   34554   34548      24   34554   34551
      25   34560   34557      24   34563   34557      24   34563   34560      25
   34569   34566      24   34572   34566      24   34572   34569      25   34578
   34575      24   34581   34575      24   34581   34578      25   34587   34584
      24   34590   34584      24   34590   34587      25   34596   34593      24
   34599   34593      24   34599   34596      25   34605   34602      24   34608
   34602      24   34608   34605      25   34614   34611      24   34617   34611
      24   34617   34614      25   34623   34620      24   34626   34620      24
   34626   34623      25   34632   34629      24   34635   34629      24   34635
   34632      25   34641   34638      24   34644   34638      24   34644   34641
      25   34650   34647      24   34653   34647      24   34653   34650      25
   34659   34656      24   34662   34656      24   34662   34659      25   34668
   34665      24   34671   34665      24   34671   34668      25   34677   34674
      24   34680   34674      24   34680   34677      25   34686   34683      24
   34689   34683      24   34689   34686      25   34695   34692      24   34698
   34692      24   34698   34695      25   34704   34701      24   34707   34701
      24   34707   34704      25   34713   34710      24   34716   34710      24
   34716   34713      25   34722   34719      24   34725   34719      24   34725
   34722      25   34731   34728      24   34734   34728      24   34734   34731
      25   34740   34737      24   34743   34737      24   34743   34740      25
   34749   34746      24   34752   34746      24   34752   34749      25   34758
   34755      24   34761   34755      24   34761   34758      25   34767   34764
      24   34770   34764      24   34770   34767      25   34776   34773      24
   34779   34773      24   34779   34776      25   34785   34782      24   34788
   34782      24   34788   34785      25   34794   34791      24   34797   34791
      24   34797   34794      25   34803   34800      24   34806   34800      24
   34806   34803      25   34812   34809      24   34815   34809      24   34815
   34812      25   34821   34818      24   34824   34818      24   34824   34821
      25   34830   34827      24   34833   34827      24   34833   34830      25
   34839   34836      24   34842   34836      24   34842   34839      25   34848
   34845      24   34851   34845      24   34851   34848      25   34857   34854
      24   34860   34854      24   34860   34857      25   34866   34863      24
   34869   34863      24   34869   34866      25   34875   34872      24   34878
   34872      24   34878   34875      25   34884   34881      24   34887   34881
      24   34887   34884      25   34893   34890      24   34896   34890      24
   34896   34893      25   34902   34899      24   34905   34899      24   34905
   34902      25   34911   34908      24   34914   34908      24   34914   34911
      25   34920   34917      24   34923   34917      24   34923   34920      25
   34929   34926      24   34932   34926      24   34932   34929      25   34938
   34935      24   34941   34935      24   34941   34938      25   34947   34944
      24   34950   34944      24   34950   34947      25   34956   34953      24
   34959   34953      24   34959   34956      25   34965   34962      24   34968
   34962      24   34968   34965      25   34974   34971      24   34977   34971
      24   34977   34974      25   34983   34980      24   34986   34980      24
   34986   34983      25   34992   34989      24   34995   34989      24   34995
   34992      25   35001   34998      24   35004   34998      24   35004   35001
      25   35010   35007      24   35013   35007      24   35013   35010      25
   35019   35016      24   35022   35016      24   35022   35019      25   35028
   35025      24   35031   35025      24   35031   35028      25   35037   35034
      24   35040   35034      24   35040   35037      25   35046   35043      24
   35049   35043      24   35049   35046      25   35055   35052      24   35058
   35052      24   35058   35055      25   35064   35061      24   35067   35061
      24   35067   35064      25   35073   35070      24   35076   35070      24
   35076   35073      25   35082   35079      24   35085   35079      24   35085
   35082      25   35091   35088      24   35094   35088      24   35094   35091
      25   35100   35097      24   35103   35097      24   35103   35100      25
   35109   35106      24   35112   35106      24   35112   35109      25   35118
   35115      24   35121   35115      24   35121   35118      25   35127   35124
      24   35130   35124      24   35130   35127      25   35136   35133      24
   35139   35133      24   35139   35136      25   35145   35142      24   35148
   35142      24   35148   35145      25   35154   35151      24   35157   35151
      24   35157   35154      25   35163   35160      24   35166   35160      24
   35166   35163      25   35172   35169      24   35175   35169      24   35175
   35172      25   35181   35178      24   35184   35178      24   35184   35181
      25   35190   35187      24   35193   35187      24   35193   35190      25
   35199   35196      24   35202   35196      24   35202   35199      25   35208
   35205      24   35211   35205      24   35211   35208      25   35217   35214
      24   35220   35214      24   35220   35217      25   35226   35223      24
   35229   35223      24   35229   35226      25   35235   35232      24   35238
   35232      24   35238   35235      25   35244   35241      24   35247   35241
      24   35247   35244      25   35253   35250      24   35256   35250      24
   35256   35253      25   35262   35259      24   35265   35259      24   35265
   35262      25   35271   35268      24   35274   35268      24   35274   35271
      25   35280   35277      24   35283   35277      24   35283   35280      25
   35289   35286      24   35292   35286      24   35292   35289      25   35298
   35295      24   35301   35295      24   35301   35298      25   35307   35304
      24   35310   35304      24   35310   35307      25   35316   35313      24
   35319   35313      24   35319   35316      25   35325   35322      24   35328
   35322      24   35328   35325      25   35334   35331      24   35337   35331
      24   35337   35334      25   35343   35340      24   35346   35340      24
   35346   35343      25   35352   35349      24   35355   35349      24   35355
   35352      25   35361   35358      24   35364   35358      24   35364   35361
      25   35370   35367      24   35373   35367      24   35373   35370      25
   35379   35376      24   35382   35376      24   35382   35379      25   35388
   35385      24   35391   35385      24   35391   35388      25   35397   35394
      24   35400   35394      24   35400   35397      25   35406   35403      24
   35409   35403      24   35409   35406      25   35415   35412      24   35418
   35412      24   35418   35415      25   35424   35421      24   35427   35421
      24   35427   35424      25   35433   35430      24   35436   35430      24
   35436   35433      25   35442   35439      24   35445   35439      24   35445
   35442      25   35451   35448      24   35454   35448      24   35454   35451
      25   35460   35457      24   35463   35457      24   35463   35460      25
   35469   35466      24   35472   35466      24   35472   35469      25   35478
   35475      24   35481   35475      24   35481   35478      25   35487   35484
      24   35490   35484      24   35490   35487      25   35496   35493      24
   35499   35493      24   35499   35496      25   35505   35502      24   35508
   35502      24   35508   35505      25   35514   35511      24   35517   35511
      24   35517   35514      25   35523   35520      24   35526   35520      24
   35526   35523      25   35532   35529      24   35535   35529      24   35535
   35532      25   35541   35538      24   35544   35538      24   35544   35541
      25   35550   35547      24   35553   35547      24   35553   35550      25
   35559   35556      24   35562   35556      24   35562   35559      25   35568
   35565      24   35571   35565      24   35571   35568      25   35577   35574
      24   35580   35574      24   35580   35577      25   35586   35583      24
   35589   35583      24   35589   35586      25   35595   35592      24   35598
   35592      24   35598   35595      25   35604   35601      24   35607   35601
      24   35607   35604      25   35613   35610      24   35616   35610      24
   35616   35613      25   35622   35619      24   35625   35619      24   35625
   35622      25   35631   35628      24   35634   35628      24   35634   35631
      25   35640   35637      24   35643   35637      24   35643   35640      25
   35649   35646      24   35652   35646      24   35652   35649      25   35658
   35655      24   35661   35655      24   35661   35658      25   35667   35664
      24   35670   35664      24   35670   35667      25   35676   35673      24
   35679   35673      24   35679   35676      25   35685   35682      24   35688
   35682      24   35688   35685      25   35694   35691      24   35697   35691
      24   35697   35694      25   35703   35700      24   35706   35700      24
   35706   35703      25   35712   35709      24   35715   35709      24   35715
   35712      25   35721   35718      24   35724   35718      24   35724   35721
      25   35730   35727      24   35733   35727      24   35733   35730      25
   35739   35736      24   35742   35736      24   35742   35739      25   35748
   35745      24   35751   35745      24   35751   35748      25   35757   35754
      24   35760   35754      24   35760   35757      25   35766   35763      24
   35769   35763      24   35769   35766      25   35775   35772      24   35778
   35772      24   35778   35775      25   35784   35781      24   35787   35781
      24   35787   35784      25   35793   35790      24   35796   35790      24
   35796   35793      25   35802   35799      24   35805   35799      24   35805
   35802      25   35811   35808      24   35814   35808      24   35814   35811
      25   35820   35817      24   35823   35817      24   35823   35820      25
   35829   35826      24   35832   35826      24   35832   35829      25   35838
   35835      24   35841   35835      24   35841   35838      25   35847   35844
      24   35850   35844      24   35850   35847      25   35856   35853      24
   35859   35853      24   35859   35856      25   35865   35862      24   35868
   35862      24   35868   35865      25   35874   35871      24   35877   35871
      24   35877   35874      25   35883   35880      24   35886   35880      24
   35886   35883      25   35892   35889      24   35895   35889      24   35895
   35892      25   35901   35898      24   35904   35898      24   35904   35901
      25   35910   35907      24   35913   35907      24   35913   35910      25
   35919   35916      24   35922   35916      24   35922   35919      25   35928
   35925      24   35931   35925      24   35931   35928      25   35937   35934
      24   35940   35934      24   35940   35937      25   35946   35943      24
   35949   35943      24   35949   35946      25   35955   35952      24   35958
   35952      24   35958   35955      25   35964   35961      24   35967   35961
      24   35967   35964      25   35973   35970      24   35976   35970      24
   35976   35973      25   35982   35979      24   35985   35979      24   35985
   35982      25   35991   35988      24   35994   35988      24   35994   35991
      25   36000   35997      24   36003   35997      24   36003   36000      25
   36009   36006      24   36012   36006      24   36012   36009      25   36018
   36015      24   36021   36015      24   36021   36018      25   36027   36024
      24   36030   36024      24   36030   36027      25   36036   36033      24
   36039   36033      24   36039   36036      25   36045   36042      24   36048
   36042      24   36048   36045      25   36054   36051      24   36057   36051
      24   36057   36054      25   36063   36060      24   36066   36060      24
   36066   36063      25   36072   36069      24   36075   36069      24   36075
   36072      25   36081   36078      24   36084   36078      24   36084   36081
      25   36090   36087      24   36093   36087      24   36093   36090      25
   36099   36096      24   36102   36096      24   36102   36099      25   36108
   36105      24   36111   36105      24   36111   36108      25   36117   36114
      24   36120   36114      24   36120   36117      25   36126   36123      24
   36129   36123      24   36129   36126      25   36135   36132      24   36138
   36132      24   36138   36135      25   36144   36141      24   36147   36141
      24   36147   36144      25   36153   36150      24   36156   36150      24
   36156   36153      25   36162   36159      24   36165   36159      24   36165
   36162      25   36171   36168      24   36174   36168      24   36174   36171
      25   36180   36177      24   36183   36177      24   36183   36180      25
   36189   36186      24   36192   36186      24   36192   36189      25   36198
   36195      24   36201   36195      24   36201   36198      25   36207   36204
      24   36210   36204      24   36210   36207      25   36216   36213      24
   36219   36213      24   36219   36216      25   36225   36222      24   36228
   36222      24   36228   36225      25   36234   36231      24   36237   36231
      24   36237   36234      25   36243   36240      24   36246   36240      24
   36246   36243      25   36252   36249      24   36255   36249      24   36255
   36252      25   36261   36258      24   36264   36258      24   36264   36261
      25   36270   36267      24   36273   36267      24   36273   36270      25
   36279   36276      24   36282   36276      24   36282   36279      25   36288
   36285      24   36291   36285      24   36291   36288      25   36297   36294
      24   36300   36294      24   36300   36297      25   36306   36303      24
   36309   36303      24   36309   36306      25   36315   36312      24   36318
   36312      24   36318   36315      25   36324   36321      24   36327   36321
      24   36327   36324      25   36333   36330      24   36336   36330      24
   36336   36333      25   36342   36339      24   36345   36339      24   36345
   36342      25   36351   36348      24   36354   36348      24   36354   36351
      25   36360   36357      24   36363   36357      24   36363   36360      25
   36369   36366      24   36372   36366      24   36372   36369      25   36378
   36375      24   36381   36375      24   36381   36378      25   36387   36384
      24   36390   36384      24   36390   36387      25   36396   36393      24
   36399   36393      24   36399   36396      25   36405   36402      24   36408
   36402      24   36408   36405      25   36414   36411      24   36417   36411
      24   36417   36414      25   36423   36420      24   36426   36420      24
   36426   36423      25   36432   36429      24   36435   36429      24   36435
   36432      25   36441   36438      24   36444   36438      24   36444   36441
      25   36450   36447      24   36453   36447      24   36453   36450      25
   36459   36456      24   36462   36456      24   36462   36459      25   36468
   36465      24   36471   36465      24   36471   36468      25   36477   36474
      24   36480   36474      24   36480   36477      25   36486   36483      24
   36489   36483      24   36489   36486      25   36495   36492      24   36498
   36492      24   36498   36495      25   36504   36501      24   36507   36501
      24   36507   36504      25   36513   36510      24   36516   36510      24
   36516   36513      25   36522   36519      24   36525   36519      24   36525
   36522      25   36531   36528      24   36534   36528      24   36534   36531
      25   36540   36537      24   36543   36537      24   36543   36540      25
   36549   36546      24   36552   36546      24   36552   36549      25   36558
   36555      24   36561   36555      24   36561   36558      25   36567   36564
      24   36570   36564      24   36570   36567      25   36576   36573      24
   36579   36573      24   36579   36576      25   36585   36582      24   36588
   36582      24   36588   36585      25   36594   36591      24   36597   36591
      24   36597   36594      25   36603   36600      24   36606   36600      24
   36606   36603      25   36612   36609      24   36615   36609      24   36615
   36612      25   36621   36618      24   36624   36618      24   36624   36621
      25   36630   36627      24   36633   36627      24   36633   36630      25
   36639   36636      24   36642   36636      24   36642   36639      25   36648
   36645      24   36651   36645      24   36651   36648      25   36657   36654
      24   36660   36654      24   36660   36657      25   36666   36663      24
   36669   36663      24   36669   36666      25   36675   36672      24   36678
   36672      24   36678   36675      25   36684   36681      24   36687   36681
      24   36687   36684      25   36693   36690      24   36696   36690      24
   36696   36693      25   36702   36699      24   36705   36699      24   36705
   36702      25   36711   36708      24   36714   36708      24   36714   36711
      25   36720   36717      24   36723   36717      24   36723   36720      25
   36729   36726      24   36732   36726      24   36732   36729      25   36738
   36735      24   36741   36735      24   36741   36738      25   36747   36744
      24   36750   36744      24   36750   36747      25   36756   36753      24
   36759   36753      24   36759   36756      25   36765   36762      24   36768
   36762      24   36768   36765      25   36774   36771      24   36777   36771
      24   36777   36774      25   36783   36780      24   36786   36780      24
   36786   36783      25   36792   36789      24   36795   36789      24   36795
   36792      25   36801   36798      24   36804   36798      24   36804   36801
      25   36810   36807      24   36813   36807      24   36813   36810      25
   36819   36816      24   36822   36816      24   36822   36819      25   36828
   36825      24   36831   36825      24   36831   36828      25   36837   36834
      24   36840   36834      24   36840   36837      25   36846   36843      24
   36849   36843      24   36849   36846      25   36855   36852      24   36858
   36852      24   36858   36855      25   36864   36861      24   36867   36861
      24   36867   36864      25   36873   36870      24   36876   36870      24
   36876   36873      25   36882   36879      24   36885   36879      24   36885
   36882      25   36891   36888      24   36894   36888      24   36894   36891
      25   36900   36897      24   36903   36897      24   36903   36900      25
   36909   36906      24   36912   36906      24   36912   36909      25   36918
   36915      24   36921   36915      24   36921   36918      25   36927   36924
      24   36930   36924      24   36930   36927      25   36936   36933      24
   36939   36933      24   36939   36936      25   36945   36942      24   36948
   36942      24   36948   36945      25   36954   36951      24   36957   36951
      24   36957   36954      25   36963   36960      24   36966   36960      24
   36966   36963      25   36972   36969      24   36975   36969      24   36975
   36972      25   36981   36978      24   36984   36978      24   36984   36981
      25   36990   36987      24   36993   36987      24   36993   36990      25
   36999   36996      24   37002   36996      24   37002   36999      25   37008
   37005      24   37011   37005      24   37011   37008      25   37017   37014
      24   37020   37014      24   37020   37017      25   37026   37023      24
   37029   37023      24   37029   37026      25   37035   37032      24   37038
   37032      24   37038   37035      25   37044   37041      24   37047   37041
      24   37047   37044      25   37053   37050      24   37056   37050      24
   37056   37053      25   37062   37059      24   37065   37059      24   37065
   37062      25   37071   37068      24   37074   37068      24   37074   37071
      25   37080   37077      24   37083   37077      24   37083   37080      25
   37089   37086      24   37092   37086      24   37092   37089      25   37098
   37095      24   37101   37095      24   37101   37098      25   37107   37104
      24   37110   37104      24   37110   37107      25   37116   37113      24
   37119   37113      24   37119   37116      25   37125   37122      24   37128
   37122      24   37128   37125      25   37134   37131      24   37137   37131
      24   37137   37134      25   37143   37140      24   37146   37140      24
   37146   37143      25   37152   37149      24   37155   37149      24   37155
   37152      25   37161   37158      24   37164   37158      24   37164   37161
      25   37170   37167      24   37173   37167      24   37173   37170      25
   37179   37176      24   37182   37176      24   37182   37179      25   37188
   37185      24   37191   37185      24   37191   37188      25   37197   37194
      24   37200   37194      24   37200   37197      25   37206   37203      24
   37209   37203      24   37209   37206      25   37215   37212      24   37218
   37212      24   37218   37215      25   37224   37221      24   37227   37221
      24   37227   37224      25   37233   37230      24   37236   37230      24
   37236   37233      25   37242   37239      24   37245   37239      24   37245
   37242      25   37251   37248      24   37254   37248      24   37254   37251
      25   37260   37257      24   37263   37257      24   37263   37260      25
   37269   37266      24   37272   37266      24   37272   37269      25   37278
   37275      24   37281   37275      24   37281   37278      25   37287   37284
      24   37290   37284      24   37290   37287      25   37296   37293      24
   37299   37293      24   37299   37296      25   37305   37302      24   37308
   37302      24   37308   37305      25   37314   37311      24   37317   37311
      24   37317   37314      25   37323   37320      24   37326   37320      24
   37326   37323      25   37332   37329      24   37335   37329      24   37335
   37332      25   37341   37338      24   37344   37338      24   37344   37341
      25   37350   37347      24   37353   37347      24   37353   37350      25
   37359   37356      24   37362   37356      24   37362   37359      25   37368
   37365      24   37371   37365      24   37371   37368      25   37377   37374
      24   37380   37374      24   37380   37377      25   37386   37383      24
   37389   37383      24   37389   37386      25   37395   37392      24   37398
   37392      24   37398   37395      25   37404   37401      24   37407   37401
      24   37407   37404      25   37413   37410      24   37416   37410      24
   37416   37413      25   37422   37419      24   37425   37419      24   37425
   37422      25   37431   37428      24   37434   37428      24   37434   37431
      25   37440   37437      24   37443   37437      24   37443   37440      25
   37449   37446      24   37452   37446      24   37452   37449      25   37458
   37455      24   37461   37455      24   37461   37458      25   37467   37464
      24   37470   37464      24   37470   37467      25   37476   37473      24
   37479   37473      24   37479   37476      25   37485   37482      24   37488
   37482      24   37488   37485      25   37494   37491      24   37497   37491
      24   37497   37494      25   37503   37500      24   37506   37500      24
   37506   37503      25   37512   37509      24   37515   37509      24   37515
   37512      25   37521   37518      24   37524   37518      24   37524   37521
      25   37530   37527      24   37533   37527      24   37533   37530      25
   37539   37536      24   37542   37536      24   37542   37539      25   37548
   37545      24   37551   37545      24   37551   37548      25   37557   37554
      24   37560   37554      24   37560   37557      25   37566   37563      24
   37569   37563      24   37569   37566      25   37575   37572      24   37578
   37572      24   37578   37575      25   37584   37581      24   37587   37581
      24   37587   37584      25   37593   37590      24   37596   37590      24
   37596   37593      25   37602   37599      24   37605   37599      24   37605
   37602      25   37611   37608      24   37614   37608      24   37614   37611
      25   37620   37617      24   37623   37617      24   37623   37620      25
   37629   37626      24   37632   37626      24   37632   37629      25   37638
   37635      24   37641   37635      24   37641   37638      25   37647   37644
      24   37650   37644      24   37650   37647      25   37656   37653      24
   37659   37653      24   37659   37656      25   37665   37662      24   37668
   37662      24   37668   37665      25   37674   37671      24   37677   37671
      24   37677   37674      25   37683   37680      24   37686   37680      24
   37686   37683      25   37692   37689      24   37695   37689      24   37695
   37692      25   37701   37698      24   37704   37698      24   37704   37701
      25   37710   37707      24   37713   37707      24   37713   37710      25
   37719   37716      24   37722   37716      24   37722   37719      25   37728
   37725      24   37731   37725      24   37731   37728      25   37737   37734
      24   37740   37734      24   37740   37737      25   37746   37743      24
   37749   37743      24   37749   37746      25   37755   37752      24   37758
   37752      24   37758   37755      25   37764   37761      24   37767   37761
      24   37767   37764      25   37773   37770      24   37776   37770      24
   37776   37773      25   37782   37779      24   37785   37779      24   37785
   37782      25   37791   37788      24   37794   37788      24   37794   37791
      25   37800   37797      24   37803   37797      24   37803   37800      25
   37809   37806      24   37812   37806      24   37812   37809      25   37818
   37815      24   37821   37815      24   37821   37818      25   37827   37824
      24   37830   37824      24   37830   37827      25   37836   37833      24
   37839   37833      24   37839   37836      25   37845   37842      24   37848
   37842      24   37848   37845      25   37854   37851      24   37857   37851
      24   37857   37854      25   37863   37860      24   37866   37860      24
   37866   37863      25   37872   37869      24   37875   37869      24   37875
   37872      25   37881   37878      24   37884   37878      24   37884   37881
      25   37890   37887      24   37893   37887      24   37893   37890      25
   37899   37896      24   37902   37896      24   37902   37899      25   37908
   37905      24   37911   37905      24   37911   37908      25   37917   37914
      24   37920   37914      24   37920   37917      25   37926   37923      24
   37929   37923      24   37929   37926      25   37935   37932      24   37938
   37932      24   37938   37935      25   37944   37941      24   37947   37941
      24   37947   37944      25   37953   37950      24   37956   37950      24
   37956   37953      25   37962   37959      24   37965   37959      24   37965
   37962      25   37971   37968      24   37974   37968      24   37974   37971
      25   37980   37977      24   37983   37977      24   37983   37980      25
   37989   37986      24   37992   37986      24   37992   37989      25   37998
   37995      24   38001   37995      24   38001   37998      25   38007   38004
      24   38010   38004      24   38010   38007      25   38016   38013      24
   38019   38013      24   38019   38016      25   38025   38022      24   38028
   38022      24   38028   38025      25   38034   38031      24   38037   38031
      24   38037   38034      25   38043   38040      24   38046   38040      24
   38046   38043      25   38052   38049      24   38055   38049      24   38055
   38052      25   38061   38058      24   38064   38058      24   38064   38061
      25   38070   38067      24   38073   38067      24   38073   38070      25
   38079   38076      24   38082   38076      24   38082   38079      25   38088
   38085      24   38091   38085      24   38091   38088      25   38097   38094
      24   38100   38094      24   38100   38097      25   38106   38103      24
   38109   38103      24   38109   38106      25   38115   38112      24   38118
   38112      24   38118   38115      25   38124   38121      24   38127   38121
      24   38127   38124      25   38133   38130      24   38136   38130      24
   38136   38133      25   38142   38139      24   38145   38139      24   38145
   38142      25   38151   38148      24   38154   38148      24   38154   38151
      25   38160   38157      24   38163   38157      24   38163   38160      25
   38169   38166      24   38172   38166      24   38172   38169      25   38178
   38175      24   38181   38175      24   38181   38178      25   38187   38184
      24   38190   38184      24   38190   38187      25   38196   38193      24
   38199   38193      24   38199   38196      25   38205   38202      24   38208
   38202      24   38208   38205      25   38214   38211      24   38217   38211
      24   38217   38214      25   38223   38220      24   38226   38220      24
   38226   38223      25   38232   38229      24   38235   38229      24   38235
   38232      25   38241   38238      24   38244   38238      24   38244   38241
      25   38250   38247      24   38253   38247      24   38253   38250      25
   38259   38256      24   38262   38256      24   38262   38259      25   38268
   38265      24   38271   38265      24   38271   38268      25   38277   38274
      24   38280   38274      24   38280   38277      25   38286   38283      24
   38289   38283      24   38289   38286      25   38295   38292      24   38298
   38292      24   38298   38295      25   38304   38301      24   38307   38301
      24   38307   38304      25   38313   38310      24   38316   38310      24
   38316   38313      25   38322   38319      24   38325   38319      24   38325
   38322      25   38331   38328      24   38334   38328      24   38334   38331
      25   38340   38337      24   38343   38337      24   38343   38340      25
   38349   38346      24   38352   38346      24   38352   38349      25   38358
   38355      24   38361   38355      24   38361   38358      25   38367   38364
      24   38370   38364      24   38370   38367      25   38376   38373      24
   38379   38373      24   38379   38376      25   38385   38382      24   38388
   38382      24   38388   38385      25   38394   38391      24   38397   38391
      24   38397   38394      25   38403   38400      24   38406   38400      24
   38406   38403      25   38412   38409      24   38415   38409      24   38415
   38412      25   38421   38418      24   38424   38418      24   38424   38421
      25   38430   38427      24   38433   38427      24   38433   38430      25
   38439   38436      24   38442   38436      24   38442   38439      25   38448
   38445      24   38451   38445      24   38451   38448      25   38457   38454
      24   38460   38454      24   38460   38457      25   38466   38463      24
   38469   38463      24   38469   38466      25   38475   38472      24   38478
   38472      24   38478   38475      25   38484   38481      24   38487   38481
      24   38487   38484      25   38493   38490      24   38496   38490      24
   38496   38493      25   38502   38499      24   38505   38499      24   38505
   38502      25   38511   38508      24   38514   38508      24   38514   38511
      25   38520   38517      24   38523   38517      24   38523   38520      25
   38529   38526      24   38532   38526      24   38532   38529      25   38538
   38535      24   38541   38535      24   38541   38538      25   38547   38544
      24   38550   38544      24   38550   38547      25   38556   38553      24
   38559   38553      24   38559   38556      25   38565   38562      24   38568
   38562      24   38568   38565      25   38574   38571      24   38577   38571
      24   38577   38574      25   38583   38580      24   38586   38580      24
   38586   38583      25   38592   38589      24   38595   38589      24   38595
   38592      25   38601   38598      24   38604   38598      24   38604   38601
      25   38610   38607      24   38613   38607      24   38613   38610      25
   38619   38616      24   38622   38616      24   38622   38619      25   38628
   38625      24   38631   38625      24   38631   38628      25   38637   38634
      24   38640   38634      24   38640   38637      25   38646   38643      24
   38649   38643      24   38649   38646      25   38655   38652      24   38658
   38652      24   38658   38655      25   38664   38661      24   38667   38661
      24   38667   38664      25   38673   38670      24   38676   38670      24
   38676   38673      25   38682   38679      24   38685   38679      24   38685
   38682      25   38691   38688      24   38694   38688      24   38694   38691
      25   38700   38697      24   38703   38697      24   38703   38700      25
   38709   38706      24   38712   38706      24   38712   38709      25   38718
   38715      24   38721   38715      24   38721   38718      25   38727   38724
      24   38730   38724      24   38730   38727      25   38736   38733      24
   38739   38733      24   38739   38736      25   38745   38742      24   38748
   38742      24   38748   38745      25   38754   38751      24   38757   38751
      24   38757   38754      25   38763   38760      24   38766   38760      24
   38766   38763      25   38772   38769      24   38775   38769      24   38775
   38772      25   38781   38778      24   38784   38778      24   38784   38781
      25   38790   38787      24   38793   38787      24   38793   38790      25
   38799   38796      24   38802   38796      24   38802   38799      25   38808
   38805      24   38811   38805      24   38811   38808      25   38817   38814
      24   38820   38814      24   38820   38817      25   38826   38823      24
   38829   38823      24   38829   38826      25   38835   38832      24   38838
   38832      24   38838   38835      25   38844   38841      24   38847   38841
      24   38847   38844      25   38853   38850      24   38856   38850      24
   38856   38853      25   38862   38859      24   38865   38859      24   38865
   38862      25   38871   38868      24   38874   38868      24   38874   38871
      25   38880   38877      24   38883   38877      24   38883   38880      25
   38889   38886      24   38892   38886      24   38892   38889      25   38898
   38895      24   38901   38895      24   38901   38898      25   38907   38904
      24   38910   38904      24   38910   38907      25   38916   38913      24
   38919   38913      24   38919   38916      25   38925   38922      24   38928
   38922      24   38928   38925      25   38934   38931      24   38937   38931
      24   38937   38934      25   38943   38940      24   38946   38940      24
   38946   38943      25   38952   38949      24   38955   38949      24   38955
   38952      25   38961   38958      24   38964   38958      24   38964   38961
      25   38970   38967      24   38973   38967      24   38973   38970      25
   38979   38976      24   38982   38976      24   38982   38979      25   38988
   38985      24   38991   38985      24   38991   38988      25   38997   38994
      24   39000   38994      24   39000   38997      25   39006   39003      24
   39009   39003      24   39009   39006      25   39015   39012      24   39018
   39012      24   39018   39015      25   39024   39021      24   39027   39021
      24   39027   39024      25   39033   39030      24   39036   39030      24
   39036   39033      25   39042   39039      24   39045   39039      24   39045
   39042      25   39051   39048      24   39054   39048      24   39054   39051
      25   39060   39057      24   39063   39057      24   39063   39060      25
   39069   39066      24   39072   39066      24   39072   39069      25   39078
   39075      24   39081   39075      24   39081   39078      25   39087   39084
      24   39090   39084      24   39090   39087      25   39096   39093      24
   39099   39093      24   39099   39096      25   39105   39102      24   39108
   39102      24   39108   39105      25   39114   39111      24   39117   39111
      24   39117   39114      25   39123   39120      24   39126   39120      24
   39126   39123      25   39132   39129      24   39135   39129      24   39135
   39132      25   39141   39138      24   39144   39138      24   39144   39141
      25   39150   39147      24   39153   39147      24   39153   39150      25
   39159   39156      24   39162   39156      24   39162   39159      25   39168
   39165      24   39171   39165      24   39171   39168      25   39177   39174
      24   39180   39174      24   39180   39177      25   39186   39183      24
   39189   39183      24   39189   39186      25   39195   39192      24   39198
   39192      24   39198   39195      25   39204   39201      24   39207   39201
      24   39207   39204      25   39213   39210      24   39216   39210      24
   39216   39213      25   39222   39219      24   39225   39219      24   39225
   39222      25   39231   39228      24   39234   39228      24   39234   39231
      25   39240   39237      24   39243   39237      24   39243   39240      25
   39249   39246      24   39252   39246      24   39252   39249      25   39258
   39255      24   39261   39255      24   39261   39258      25   39267   39264
      24   39270   39264      24   39270   39267      25   39276   39273      24
   39279   39273      24   39279   39276      25   39285   39282      24   39288
   39282      24   39288   39285      25   39294   39291      24   39297   39291
      24   39297   39294      25   39303   39300      24   39306   39300      24
   39306   39303      25   39312   39309      24   39315   39309      24   39315
   39312      25   39321   39318      24   39324   39318      24   39324   39321
      25   39330   39327      24   39333   39327      24   39333   39330      25
   39339   39336      24   39342   39336      24   39342   39339      25   39348
   39345      24   39351   39345      24   39351   39348      25   39357   39354
      24   39360   39354      24   39360   39357      25   39366   39363      24
   39369   39363      24   39369   39366      25   39375   39372      24   39378
   39372      24   39378   39375      25   39384   39381      24   39387   39381
      24   39387   39384      25   39393   39390      24   39396   39390      24
   39396   39393      25   39402   39399      24   39405   39399      24   39405
   39402      25   39411   39408      24   39414   39408      24   39414   39411
      25   39420   39417      24   39423   39417      24   39423   39420      25
   39429   39426      24   39432   39426      24   39432   39429      25   39438
   39435      24   39441   39435      24   39441   39438      25   39447   39444
      24   39450   39444      24   39450   39447      25   39456   39453      24
   39459   39453      24   39459   39456      25   39465   39462      24   39468
   39462      24   39468   39465      25   39474   39471      24   39477   39471
      24   39477   39474      25   39483   39480      24   39486   39480      24
   39486   39483      25   39492   39489      24   39495   39489      24   39495
   39492      25   39501   39498      24   39504   39498      24   39504   39501
      25   39510   39507      24   39513   39507      24   39513   39510      25
   39519   39516      24   39522   39516      24   39522   39519      25   39528
   39525      24   39531   39525      24   39531   39528      25   39537   39534
      24   39540   39534      24   39540   39537      25   39546   39543      24
   39549   39543      24   39549   39546      25   39555   39552      24   39558
   39552      24   39558   39555      25   39564   39561      24   39567   39561
      24   39567   39564      25   39573   39570      24   39576   39570      24
   39576   39573      25   39582   39579      24   39585   39579      24   39585
   39582      25   39591   39588      24   39594   39588      24   39594   39591
      25   39600   39597      24   39603   39597      24   39603   39600      25
   39609   39606      24   39612   39606      24   39612   39609      25   39618
   39615      24   39621   39615      24   39621   39618      25   39627   39624
      24   39630   39624      24   39630   39627      25   39636   39633      24
   39639   39633      24   39639   39636      25   39645   39642      24   39648
   39642      24   39648   39645      25   39654   39651      24   39657   39651
      24   39657   39654      25   39663   39660      24   39666   39660      24
   39666   39663      25   39672   39669      24   39675   39669      24   39675
   39672      25   39681   39678      24   39684   39678      24   39684   39681
      25   39690   39687      24   39693   39687      24   39693   39690      25
   39699   39696      24   39702   39696      24   39702   39699      25   39708
   39705      24   39711   39705      24   39711   39708      25   39717   39714
      24   39720   39714      24   39720   39717      25   39726   39723      24
   39729   39723      24   39729   39726      25   39735   39732      24   39738
   39732      24   39738   39735      25   39744   39741      24   39747   39741
      24   39747   39744      25   39753   39750      24   39756   39750      24
   39756   39753      25   39762   39759      24   39765   39759      24   39765
   39762      25   39771   39768      24   39774   39768      24   39774   39771
      25   39780   39777      24   39783   39777      24   39783   39780      25
   39789   39786      24   39792   39786      24   39792   39789      25   39798
   39795      24   39801   39795      24   39801   39798      25   39807   39804
      24   39810   39804      24   39810   39807      25   39816   39813      24
   39819   39813      24   39819   39816      25   39825   39822      24   39828
   39822      24   39828   39825      25   39834   39831      24   39837   39831
      24   39837   39834      25   39843   39840      24   39846   39840      24
   39846   39843      25   39852   39849      24   39855   39849      24   39855
   39852      25   39861   39858      24   39864   39858      24   39864   39861
      25   39870   39867      24   39873   39867      24   39873   39870      25
   39879   39876      24   39882   39876      24   39882   39879      25   39888
   39885      24   39891   39885      24   39891   39888      25   39897   39894
      24   39900   39894      24   39900   39897      25   39906   39903      24
   39909   39903      24   39909   39906      25   39915   39912      24   39918
   39912      24   39918   39915      25   39924   39921      24   39927   39921
      24   39927   39924      25   39933   39930      24   39936   39930      24
   39936   39933      25   39942   39939      24   39945   39939      24   39945
   39942      25   39951   39948      24   39954   39948      24   39954   39951
      25   39960   39957      24   39963   39957      24   39963   39960      25
   39969   39966      24   39972   39966      24   39972   39969      25   39978
   39975      24   39981   39975      24   39981   39978      25   39987   39984
      24   39990   39984      24   39990   39987      25   39996   39993      24
   39999   39993      24   39999   39996      25   40005   40002      24   40008
   40002      24   40008   40005      25   40014   40011      24   40017   40011
      24   40017   40014      25   40023   40020      24   40026   40020      24
   40026   40023      25   40032   40029      24   40035   40029      24   40035
   40032      25   40041   40038      24   40044   40038      24   40044   40041
      25   40050   40047      24   40053   40047      24   40053   40050      25
   40059   40056      24   40062   40056      24   40062   40059      25   40068
   40065      24   40071   40065      24   40071   40068      25   40077   40074
      24   40080   40074      24   40080   40077      25   40086   40083      24
   40089   40083      24   40089   40086      25   40095   40092      24   40098
   40092      24   40098   40095      25   40104   40101      24   40107   40101
      24   40107   40104      25   40113   40110      24   40116   40110      24
   40116   40113      25   40122   40119      24   40125   40119      24   40125
   40122      25   40131   40128      24   40134   40128      24   40134   40131
      25   40140   40137      24   40143   40137      24   40143   40140      25
   40149   40146      24   40152   40146      24   40152   40149      25   40158
   40155      24   40161   40155      24   40161   40158      25   40167   40164
      24   40170   40164      24   40170   40167      25   40176   40173      24
   40179   40173      24   40179   40176      25   40185   40182      24   40188
   40182      24   40188   40185      25   40194   40191      24   40197   40191
      24   40197   40194      25   40203   40200      24   40206   40200      24
   40206   40203      25   40212   40209      24   40215   40209      24   40215
   40212      25   40221   40218      24   40224   40218      24   40224   40221
      25   40230   40227      24   40233   40227      24   40233   40230      25
   40239   40236      24   40242   40236      24   40242   40239      25   40248
   40245      24   40251   40245      24   40251   40248      25   40257   40254
      24   40260   40254      24   40260   40257      25   40266   40263      24
   40269   40263      24   40269   40266      25   40275   40272      24   40278
   40272      24   40278   40275      25   40284   40281      24   40287   40281
      24   40287   40284      25   40293   40290      24   40296   40290      24
   40296   40293      25   40302   40299      24   40305   40299      24   40305
   40302      25   40311   40308      24   40314   40308      24   40314   40311
      25   40320   40317      24   40323   40317      24   40323   40320      25
   40329   40326      24   40332   40326      24   40332   40329      25   40338
   40335      24   40341   40335      24   40341   40338      25   40347   40344
      24   40350   40344      24   40350   40347      25   40356   40353      24
   40359   40353      24   40359   40356      25   40365   40362      24   40368
   40362      24   40368   40365      25   40374   40371      24   40377   40371
      24   40377   40374      25   40383   40380      24   40386   40380      24
   40386   40383      25   40392   40389      24   40395   40389      24   40395
   40392      25   40401   40398      24   40404   40398      24   40404   40401
      25   40410   40407      24   40413   40407      24   40413   40410      25
   40419   40416      24   40422   40416      24   40422   40419      25   40428
   40425      24   40431   40425      24   40431   40428      25   40437   40434
      24   40440   40434      24   40440   40437      25   40446   40443      24
   40449   40443      24   40449   40446      25   40455   40452      24   40458
   40452      24   40458   40455      25   40464   40461      24   40467   40461
      24   40467   40464      25   40473   40470      24   40476   40470      24
   40476   40473      25   40482   40479      24   40485   40479      24   40485
   40482      25   40491   40488      24   40494   40488      24   40494   40491
      25   40500   40497      24   40503   40497      24   40503   40500      25
   40509   40506      24   40512   40506      24   40512   40509      25   40518
   40515      24   40521   40515      24   40521   40518      25   40527   40524
      24   40530   40524      24   40530   40527      25   40536   40533      24
   40539   40533      24   40539   40536      25   40545   40542      24   40548
   40542      24   40548   40545      25   40554   40551      24   40557   40551
      24   40557   40554      25   40563   40560      24   40566   40560      24
   40566   40563      25   40572   40569      24   40575   40569      24   40575
   40572      25   40581   40578      24   40584   40578      24   40584   40581
      25   40590   40587      24   40593   40587      24   40593   40590      25
   40599   40596      24   40602   40596      24   40602   40599      25   40608
   40605      24   40611   40605      24   40611   40608      25   40617   40614
      24   40620   40614      24   40620   40617      25   40626   40623      24
   40629   40623      24   40629   40626      25   40635   40632      24   40638
   40632      24   40638   40635      25   40644   40641      24   40647   40641
      24   40647   40644      25   40653   40650      24   40656   40650      24
   40656   40653      25   40662   40659      24   40665   40659      24   40665
   40662      25   40671   40668      24   40674   40668      24   40674   40671
      25   40680   40677      24   40683   40677      24   40683   40680      25
   40689   40686      24   40692   40686      24   40692   40689      25   40698
   40695      24   40701   40695      24   40701   40698      25   40707   40704
      24   40710   40704      24   40710   40707      25   40716   40713      24
   40719   40713      24   40719   40716      25   40725   40722      24   40728
   40722      24   40728   40725      25   40734   40731      24   40737   40731
      24   40737   40734      25   40743   40740      24   40746   40740      24
   40746   40743      25   40752   40749      24   40755   40749      24   40755
   40752      25   40761   40758      24   40764   40758      24   40764   40761
      25   40770   40767      24   40773   40767      24   40773   40770      25
   40779   40776      24   40782   40776      24   40782   40779      25   40788
   40785      24   40791   40785      24   40791   40788      25   40797   40794
      24   40800   40794      24   40800   40797      25   40806   40803      24
   40809   40803      24   40809   40806      25   40815   40812      24   40818
   40812      24   40818   40815      25   40824   40821      24   40827   40821
      24   40827   40824      25   40833   40830      24   40836   40830      24
   40836   40833      25   40842   40839      24   40845   40839      24   40845
   40842      25   40851   40848      24   40854   40848      24   40854   40851
      25   40860   40857      24   40863   40857      24   40863   40860      25
   40869   40866      24   40872   40866      24   40872   40869      25   40878
   40875      24   40881   40875      24   40881   40878      25   40887   40884
      24   40890   40884      24   40890   40887      25   40896   40893      24
   40899   40893      24   40899   40896      25   40905   40902      24   40908
   40902      24   40908   40905      25   40914   40911      24   40917   40911
      24   40917   40914      25   40923   40920      24   40926   40920      24
   40926   40923      25   40932   40929      24   40935   40929      24   40935
   40932      25   40941   40938      24   40944   40938      24   40944   40941
      25   40950   40947      24   40953   40947      24   40953   40950      25
   40959   40956      24   40962   40956      24   40962   40959      25   40968
   40965      24   40971   40965      24   40971   40968      25   40977   40974
      24   40980   40974      24   40980   40977      25   40986   40983      24
   40989   40983      24   40989   40986      25   40995   40992      24   40998
   40992      24   40998   40995      25   41004   41001      24   41007   41001
      24   41007   41004      25   41013   41010      24   41016   41010      24
   41016   41013      25   41022   41019      24   41025   41019      24   41025
   41022      25   41031   41028      24   41034   41028      24   41034   41031
      25   41040   41037      24   41043   41037      24   41043   41040      25
   41049   41046      24   41052   41046      24   41052   41049      25   41058
   41055      24   41061   41055      24   41061   41058      25   41067   41064
      24   41070   41064      24   41070   41067      25   41076   41073      24
   41079   41073      24   41079   41076      25   41085   41082      24   41088
   41082      24   41088   41085      25   41094   41091      24   41097   41091
      24   41097   41094      25   41103   41100      24   41106   41100      24
   41106   41103      25   41112   41109      24   41115   41109      24   41115
   41112      25   41121   41118      24   41124   41118      24   41124   41121
      25   41130   41127      24   41133   41127      24   41133   41130      25
   41139   41136      24   41142   41136      24   41142   41139      25   41148
   41145      24   41151   41145      24   41151   41148      25   41157   41154
      24   41160   41154      24   41160   41157      25   41166   41163      24
   41169   41163      24   41169   41166      25   41175   41172      24   41178
   41172      24   41178   41175      25   41184   41181      24   41187   41181
      24   41187   41184      25   41193   41190      24   41196   41190      24
   41196   41193      25   41202   41199      24   41205   41199      24   41205
   41202      25   41211   41208      24   41214   41208      24   41214   41211
      25   41220   41217      24   41223   41217      24   41223   41220      25
   41229   41226      24   41232   41226      24   41232   41229      25   41238
   41235      24   41241   41235      24   41241   41238      25   41247   41244
      24   41250   41244      24   41250   41247      25   41256   41253      24
   41259   41253      24   41259   41256      25   41265   41262      24   41268
   41262      24   41268   41265      25   41274   41271      24   41277   41271
      24   41277   41274      25   41283   41280      24   41286   41280      24
   41286   41283      25   41292   41289      24   41295   41289      24   41295
   41292      25   41301   41298      24   41304   41298      24   41304   41301
      25   41310   41307      24   41313   41307      24   41313   41310      25
   41319   41316      24   41322   41316      24   41322   41319      25   41328
   41325      24   41331   41325      24   41331   41328      25   41337   41334
      24   41340   41334      24   41340   41337      25   41346   41343      24
   41349   41343      24   41349   41346      25   41355   41352      24   41358
   41352      24   41358   41355      25   41364   41361      24   41367   41361
      24   41367   41364      25   41373   41370      24   41376   41370      24
   41376   41373      25   41382   41379      24   41385   41379      24   41385
   41382      25   41391   41388      24   41394   41388      24   41394   41391
      25   41400   41397      24   41403   41397      24   41403   41400      25
   41409   41406      24   41412   41406      24   41412   41409      25   41418
   41415      24   41421   41415      24   41421   41418      25   41427   41424
      24   41430   41424      24   41430   41427      25   41436   41433      24
   41439   41433      24   41439   41436      25   41445   41442      24   41448
   41442      24   41448   41445      25   41454   41451      24   41457   41451
      24   41457   41454      25   41463   41460      24   41466   41460      24
   41466   41463      25   41472   41469      24   41475   41469      24   41475
   41472      25   41481   41478      24   41484   41478      24   41484   41481
      25   41490   41487      24   41493   41487      24   41493   41490      25
   41499   41496      24   41502   41496      24   41502   41499      25   41508
   41505      24   41511   41505      24   41511   41508      25   41517   41514
      24   41520   41514      24   41520   41517      25   41526   41523      24
   41529   41523      24   41529   41526      25   41535   41532      24   41538
   41532      24   41538   41535      25   41544   41541      24   41547   41541
      24   41547   41544      25   41553   41550      24   41556   41550      24
   41556   41553      25   41562   41559      24   41565   41559      24   41565
   41562      25   41571   41568      24   41574   41568      24   41574   41571
      25   41580   41577      24   41583   41577      24   41583   41580      25
   41589   41586      24   41592   41586      24   41592   41589      25   41598
   41595      24   41601   41595      24   41601   41598      25   41607   41604
      24   41610   41604      24   41610   41607      25   41616   41613      24
   41619   41613      24   41619   41616      25   41625   41622      24   41628
   41622      24   41628   41625      25   41634   41631      24   41637   41631
      24   41637   41634      25   41643   41640      24   41646   41640      24
   41646   41643      25   41652   41649      24   41655   41649      24   41655
   41652      25   41661   41658      24   41664   41658      24   41664   41661
      25   41670   41667      24   41673   41667      24   41673   41670      25
   41679   41676      24   41682   41676      24   41682   41679      25   41688
   41685      24   41691   41685      24   41691   41688      25   41697   41694
      24   41700   41694      24   41700   41697      25   41706   41703      24
   41709   41703      24   41709   41706      25   41715   41712      24   41718
   41712      24   41718   41715      25   41724   41721      24   41727   41721
      24   41727   41724      25   41733   41730      24   41736   41730      24
   41736   41733      25   41742   41739      24   41745   41739      24   41745
   41742      25   41751   41748      24   41754   41748      24   41754   41751
      25   41760   41757      24   41763   41757      24   41763   41760      25
   41769   41766      24   41772   41766      24   41772   41769      25   41778
   41775      24   41781   41775      24   41781   41778      25   41787   41784
      24   41790   41784      24   41790   41787      25   41796   41793      24
   41799   41793      24   41799   41796      25   41805   41802      24   41808
   41802      24   41808   41805      25   41814   41811      24   41817   41811
      24   41817   41814      25   41823   41820      24   41826   41820      24
   41826   41823      25   41832   41829      24   41835   41829      24   41835
   41832      25   41841   41838      24   41844   41838      24   41844   41841
      25   41850   41847      24   41853   41847      24   41853   41850      25
   41859   41856      24   41862   41856      24   41862   41859      25   41868
   41865      24   41871   41865      24   41871   41868      25   41877   41874
      24   41880   41874      24   41880   41877      25   41886   41883      24
   41889   41883      24   41889   41886      25   41895   41892      24   41898
   41892      24   41898   41895      25   41904   41901      24   41907   41901
      24   41907   41904      25   41913   41910      24   41916   41910      24
   41916   41913      25   41922   41919      24   41925   41919      24   41925
   41922      25   41931   41928      24   41934   41928      24   41934   41931
      25   41940   41937      24   41943   41937      24   41943   41940      25
   41949   41946      24   41952   41946      24   41952   41949      25   41958
   41955      24   41961   41955      24   41961   41958      25   41967   41964
      24   41970   41964      24   41970   41967      25   41976   41973      24
   41979   41973      24   41979   41976      25   41985   41982      24   41988
   41982      24   41988   41985      25   41994   41991      24   41997   41991
      24   41997   41994      25   42003   42000      24   42006   42000      24
   42006   42003      25   42012   42009      24   42015   42009      24   42015
   42012      25   42021   42018      24   42024   42018      24   42024   42021
      25   42030   42027      24   42033   42027      24   42033   42030      25
   42039   42036      24   42042   42036      24   42042   42039      25   42048
   42045      24   42051   42045      24   42051   42048      25   42057   42054
      24   42060   42054      24   42060   42057      25   42066   42063      24
   42069   42063      24   42069   42066      25   42075   42072      24   42078
   42072      24   42078   42075      25   42084   42081      24   42087   42081
      24   42087   42084      25   42093   42090      24   42096   42090      24
   42096   42093      25   42102   42099      24   42105   42099      24   42105
   42102      25   42111   42108      24   42114   42108      24   42114   42111
      25   42120   42117      24   42123   42117      24   42123   42120      25
   42129   42126      24   42132   42126      24   42132   42129      25   42138
   42135      24   42141   42135      24   42141   42138      25   42147   42144
      24   42150   42144      24   42150   42147      25   42156   42153      24
   42159   42153      24   42159   42156      25   42165   42162      24   42168
   42162      24   42168   42165      25   42174   42171      24   42177   42171
      24   42177   42174      25   42183   42180      24   42186   42180      24
   42186   42183      25   42192   42189      24   42195   42189      24   42195
   42192      25   42201   42198      24   42204   42198      24   42204   42201
      25   42210   42207      24   42213   42207      24   42213   42210      25
   42219   42216      24   42222   42216      24   42222   42219      25   42228
   42225      24   42231   42225      24   42231   42228      25   42237   42234
      24   42240   42234      24   42240   42237      25   42246   42243      24
   42249   42243      24   42249   42246      25   42255   42252      24   42258
   42252      24   42258   42255      25   42264   42261      24   42267   42261
      24   42267   42264      25   42273   42270      24   42276   42270      24
   42276   42273      25   42282   42279      24   42285   42279      24   42285
   42282      25   42291   42288      24   42294   42288      24   42294   42291
      25   42300   42297      24   42303   42297      24   42303   42300      25
   42309   42306      24   42312   42306      24   42312   42309      25   42318
   42315      24   42321   42315      24   42321   42318      25   42327   42324
      24   42330   42324      24   42330   42327      25   42336   42333      24
   42339   42333      24   42339   42336      25   42345   42342      24   42348
   42342      24   42348   42345      25   42354   42351      24   42357   42351
      24   42357   42354      25   42363   42360      24   42366   42360      24
   42366   42363      25   42372   42369      24   42375   42369      24   42375
   42372      25   42381   42378      24   42384   42378      24   42384   42381
      25   42390   42387      24   42393   42387      24   42393   42390      25
   42399   42396      24   42402   42396      24   42402   42399      25   42408
   42405      24   42411   42405      24   42411   42408      25   42417   42414
      24   42420   42414      24   42420   42417      25   42426   42423      24
   42429   42423      24   42429   42426      25   42435   42432      24   42438
   42432      24   42438   42435      25   42444   42441      24   42447   42441
      24   42447   42444      25   42453   42450      24   42456   42450      24
   42456   42453      25   42462   42459      24   42465   42459      24   42465
   42462      25   42471   42468      24   42474   42468      24   42474   42471
      25   42480   42477      24   42483   42477      24   42483   42480      25
   42489   42486      24   42492   42486      24   42492   42489      25   42498
   42495      24   42501   42495      24   42501   42498      25   42507   42504
      24   42510   42504      24   42510   42507      25   42516   42513      24
   42519   42513      24   42519   42516      25   42525   42522      24   42528
   42522      24   42528   42525      25   42534   42531      24   42537   42531
      24   42537   42534      25   42543   42540      24   42546   42540      24
   42546   42543      25   42552   42549      24   42555   42549      24   42555
   42552      25   42561   42558      24   42564   42558      24   42564   42561
      25   42570   42567      24   42573   42567      24   42573   42570      25
   42579   42576      24   42582   42576      24   42582   42579      25   42588
   42585      24   42591   42585      24   42591   42588      25   42597   42594
      24   42600   42594      24   42600   42597      25   42606   42603      24
   42609   42603      24   42609   42606      25   42615   42612      24   42618
   42612      24   42618   42615      25   42624   42621      24   42627   42621
      24   42627   42624      25   42633   42630      24   42636   42630      24
   42636   42633      25   42642   42639      24   42645   42639      24   42645
   42642      25   42651   42648      24   42654   42648      24   42654   42651
      25   42660   42657      24   42663   42657      24   42663   42660      25
   42669   42666      24   42672   42666      24   42672   42669      25   42678
   42675      24   42681   42675      24   42681   42678      25   42687   42684
      24   42690   42684      24   42690   42687      25   42696   42693      24
   42699   42693      24   42699   42696      25   42705   42702      24   42708
   42702      24   42708   42705      25   42714   42711      24   42717   42711
      24   42717   42714      25   42723   42720      24   42726   42720      24
   42726   42723      25   42732   42729      24   42735   42729      24   42735
   42732      25   42741   42738      24   42744   42738      24   42744   42741
      25   42750   42747      24   42753   42747      24   42753   42750      25
   42759   42756      24   42762   42756      24   42762   42759      25   42768
   42765      24   42771   42765      24   42771   42768      25   42777   42774
      24   42780   42774      24   42780   42777      25   42786   42783      24
   42789   42783      24   42789   42786      25   42795   42792      24   42798
   42792      24   42798   42795      25   42804   42801      24   42807   42801
      24   42807   42804      25   42813   42810      24   42816   42810      24
   42816   42813      25   42822   42819      24   42825   42819      24   42825
   42822      25   42831   42828      24   42834   42828      24   42834   42831
      25   42840   42837      24   42843   42837      24   42843   42840      25
   42849   42846      24   42852   42846      24   42852   42849      25   42858
   42855      24   42861   42855      24   42861   42858      25   42867   42864
      24   42870   42864      24   42870   42867      25   42876   42873      24
   42879   42873      24   42879   42876      25   42885   42882      24   42888
   42882      24   42888   42885      25   42894   42891      24   42897   42891
      24   42897   42894      25   42903   42900      24   42906   42900      24
   42906   42903      25   42912   42909      24   42915   42909      24   42915
   42912      25   42921   42918      24   42924   42918      24   42924   42921
      25   42930   42927      24   42933   42927      24   42933   42930      25
   42939   42936      24   42942   42936      24   42942   42939      25   42948
   42945      24   42951   42945      24   42951   42948      25   42957   42954
      24   42960   42954      24   42960   42957      25   42966   42963      24
   42969   42963      24   42969   42966      25   42975   42972      24   42978
   42972      24   42978   42975      25   42984   42981      24   42987   42981
      24   42987   42984      25   42993   42990      24   42996   42990      24
   42996   42993      25   43002   42999      24   43005   42999      24   43005
   43002      25   43011   43008      24   43014   43008      24   43014   43011
      25   43020   43017      24   43023   43017      24   43023   43020      25
   43029   43026      24   43032   43026      24   43032   43029      25   43038
   43035      24   43041   43035      24   43041   43038      25   43047   43044
      24   43050   43044      24   43050   43047      25   43056   43053      24
   43059   43053      24   43059   43056      25   43065   43062      24   43068
   43062      24   43068   43065      25   43074   43071      24   43077   43071
      24   43077   43074      25   43083   43080      24   43086   43080      24
   43086   43083      25   43092   43089      24   43095   43089      24   43095
   43092      25   43101   43098      24   43104   43098      24   43104   43101
      25   43110   43107      24   43113   43107      24   43113   43110      25
   43119   43116      24   43122   43116      24   43122   43119      25   43128
   43125      24   43131   43125      24   43131   43128      25   43137   43134
      24   43140   43134      24   43140   43137      25   43146   43143      24
   43149   43143      24   43149   43146      25   43155   43152      24   43158
   43152      24   43158   43155      25   43164   43161      24   43167   43161
      24   43167   43164      25   43173   43170      24   43176   43170      24
   43176   43173      25   43182   43179      24   43185   43179      24   43185
   43182      25   43191   43188      24   43194   43188      24   43194   43191
      25   43200   43197      24   43203   43197      24   43203   43200      25
   43209   43206      24   43212   43206      24   43212   43209      25   43218
   43215      24   43221   43215      24   43221   43218      25   43227   43224
      24   43230   43224      24   43230   43227      25   43236   43233      24
   43239   43233      24   43239   43236      25   43245   43242      24   43248
   43242      24   43248   43245      25   43254   43251      24   43257   43251
      24   43257   43254      25   43263   43260      24   43266   43260      24
   43266   43263      25   43272   43269      24   43275   43269      24   43275
   43272      25   43281   43278      24   43284   43278      24   43284   43281
      25   43290   43287      24   43293   43287      24   43293   43290      25
   43299   43296      24   43302   43296      24   43302   43299      25   43308
   43305      24   43311   43305      24   43311   43308      25   43317   43314
      24   43320   43314      24   43320   43317      25   43326   43323      24
   43329   43323      24   43329   43326      25   43335   43332      24   43338
   43332      24   43338   43335      25   43344   43341      24   43347   43341
      24   43347   43344      25   43353   43350      24   43356   43350      24
   43356   43353      25   43362   43359      24   43365   43359      24   43365
   43362      25   43371   43368      24   43374   43368      24   43374   43371
      25   43380   43377      24   43383   43377      24   43383   43380      25
   43389   43386      24   43392   43386      24   43392   43389      25   43398
   43395      24   43401   43395      24   43401   43398      25   43407   43404
      24   43410   43404      24   43410   43407      25   43416   43413      24
   43419   43413      24   43419   43416      25   43425   43422      24   43428
   43422      24   43428   43425      25   43434   43431      24   43437   43431
      24   43437   43434      25   43443   43440      24   43446   43440      24
   43446   43443      25   43452   43449      24   43455   43449      24   43455
   43452      25   43461   43458      24   43464   43458      24   43464   43461
      25   43470   43467      24   43473   43467      24   43473   43470      25
   43479   43476      24   43482   43476      24   43482   43479      25   43488
   43485      24   43491   43485      24   43491   43488      25   43497   43494
      24   43500   43494      24   43500   43497      25   43506   43503      24
   43509   43503      24   43509   43506      25   43515   43512      24   43518
   43512      24   43518   43515      25   43524   43521      24   43527   43521
      24   43527   43524      25   43533   43530      24   43536   43530      24
   43536   43533      25   43542   43539      24   43545   43539      24   43545
   43542      25   43551   43548      24   43554   43548      24   43554   43551
      25   43560   43557      24   43563   43557      24   43563   43560      25
   43569   43566      24   43572   43566      24   43572   43569      25   43578
   43575      24   43581   43575      24   43581   43578      25   43587   43584
      24   43590   43584      24   43590   43587      25   43596   43593      24
   43599   43593      24   43599   43596      25   43605   43602      24   43608
   43602      24   43608   43605      25   43614   43611      24   43617   43611
      24   43617   43614      25   43623   43620      24   43626   43620      24
   43626   43623      25   43632   43629      24   43635   43629      24   43635
   43632      25   43641   43638      24   43644   43638      24   43644   43641
      25   43650   43647      24   43653   43647      24   43653   43650      25
   43659   43656      24   43662   43656      24   43662   43659      25   43668
   43665      24   43671   43665      24   43671   43668      25   43677   43674
      24   43680   43674      24   43680   43677      25   43686   43683      24
   43689   43683      24   43689   43686      25   43695   43692      24   43698
   43692      24   43698   43695      25   43704   43701      24   43707   43701
      24   43707   43704      25   43713   43710      24   43716   43710      24
   43716   43713      25   43722   43719      24   43725   43719      24   43725
   43722      25   43731   43728      24   43734   43728      24   43734   43731
      25   43740   43737      24   43743   43737      24   43743   43740      25
   43749   43746      24   43752   43746      24   43752   43749      25   43758
   43755      24   43761   43755      24   43761   43758      25   43767   43764
      24   43770   43764      24   43770   43767      25   43776   43773      24
   43779   43773      24   43779   43776      25   43785   43782      24   43788
   43782      24   43788   43785      25   43794   43791      24   43797   43791
      24   43797   43794      25   43803   43800      24   43806   43800      24
   43806   43803      25   43812   43809      24   43815   43809      24   43815
   43812      25   43821   43818      24   43824   43818      24   43824   43821
      25   43830   43827      24   43833   43827      24   43833   43830      25
   43839   43836      24   43842   43836      24   43842   43839      25   43848
   43845      24   43851   43845      24   43851   43848      25   43857   43854
      24   43860   43854      24   43860   43857      25   43866   43863      24
   43869   43863      24   43869   43866      25   43875   43872      24   43878
   43872      24   43878   43875      25   43884   43881      24   43887   43881
      24   43887   43884      25   43893   43890      24   43896   43890      24
   43896   43893      25   43902   43899      24   43905   43899      24   43905
   43902      25   43911   43908      24   43914   43908      24   43914   43911
      25   43920   43917      24   43923   43917      24   43923   43920      25
   43929   43926      24   43932   43926      24   43932   43929      25   43938
   43935      24   43941   43935      24   43941   43938      25   43947   43944
      24   43950   43944      24   43950   43947      25   43956   43953      24
   43959   43953      24   43959   43956      25   43965   43962      24   43968
   43962      24   43968   43965      25   43974   43971      24   43977   43971
      24   43977   43974      25   43983   43980      24   43986   43980      24
   43986   43983      25   43992   43989      24   43995   43989      24   43995
   43992      25   44001   43998      24   44004   43998      24   44004   44001
      25   44010   44007      24   44013   44007      24   44013   44010      25
   44019   44016      24   44022   44016      24   44022   44019      25   44028
   44025      24   44031   44025      24   44031   44028      25   44037   44034
      24   44040   44034      24   44040   44037      25   44046   44043      24
   44049   44043      24   44049   44046      25   44055   44052      24   44058
   44052      24   44058   44055      25   44064   44061      24   44067   44061
      24   44067   44064      25   44073   44070      24   44076   44070      24
   44076   44073      25   44082   44079      24   44085   44079      24   44085
   44082      25   44091   44088      24   44094   44088      24   44094   44091
      25   44100   44097      24   44103   44097      24   44103   44100      25
   44109   44106      24   44112   44106      24   44112   44109      25   44118
   44115      24   44121   44115      24   44121   44118      25   44127   44124
      24   44130   44124      24   44130   44127      25   44136   44133      24
   44139   44133      24   44139   44136      25   44145   44142      24   44148
   44142      24   44148   44145      25   44154   44151      24   44157   44151
      24   44157   44154      25   44163   44160      24   44166   44160      24
   44166   44163      25   44172   44169      24   44175   44169      24   44175
   44172      25   44181   44178      24   44184   44178      24   44184   44181
      25   44190   44187      24   44193   44187      24   44193   44190      25
   44199   44196      24   44202   44196      24   44202   44199      25   44208
   44205      24   44211   44205      24   44211   44208      25   44217   44214
      24   44220   44214      24   44220   44217      25   44226   44223      24
   44229   44223      24   44229   44226      25   44235   44232      24   44238
   44232      24   44238   44235      25   44244   44241      24   44247   44241
      24   44247   44244      25   44253   44250      24   44256   44250      24
   44256   44253      25   44262   44259      24   44265   44259      24   44265
   44262      25   44271   44268      24   44274   44268      24   44274   44271
      25   44280   44277      24   44283   44277      24   44283   44280      25
   44289   44286      24   44292   44286      24   44292   44289      25   44298
   44295      24   44301   44295      24   44301   44298      25   44307   44304
      24   44310   44304      24   44310   44307      25   44316   44313      24
   44319   44313      24   44319   44316      25   44325   44322      24   44328
   44322      24   44328   44325      25   44334   44331      24   44337   44331
      24   44337   44334      25   44343   44340      24   44346   44340      24
   44346   44343      25   44352   44349      24   44355   44349      24   44355
   44352      25   44361   44358      24   44364   44358      24   44364   44361
      25   44370   44367      24   44373   44367      24   44373   44370      25
   44379   44376      24   44382   44376      24   44382   44379      25   44388
   44385      24   44391   44385      24   44391   44388      25   44397   44394
      24   44400   44394      24   44400   44397      25   44406   44403      24
   44409   44403      24   44409   44406      25   44415   44412      24   44418
   44412      24   44418   44415      25   44424   44421      24   44427   44421
      24   44427   44424      25   44433   44430      24   44436   44430      24
   44436   44433      25   44442   44439      24   44445   44439      24   44445
   44442      25   44451   44448      24   44454   44448      24   44454   44451
      25   44460   44457      24   44463   44457      24   44463   44460      25
   44469   44466      24   44472   44466      24   44472   44469      25   44478
   44475      24   44481   44475      24   44481   44478      25   44487   44484
      24   44490   44484      24   44490   44487      25   44496   44493      24
   44499   44493      24   44499   44496      25   44505   44502      24   44508
   44502      24   44508   44505      25   44514   44511      24   44517   44511
      24   44517   44514      25   44523   44520      24   44526   44520      24
   44526   44523      25   44532   44529      24   44535   44529      24   44535
   44532      25   44541   44538      24   44544   44538      24   44544   44541
      25   44550   44547      24   44553   44547      24   44553   44550      25
   44559   44556      24   44562   44556      24   44562   44559      25   44568
   44565      24   44571   44565      24   44571   44568      25   44577   44574
      24   44580   44574      24   44580   44577      25   44586   44583      24
   44589   44583      24   44589   44586      25   44595   44592      24   44598
   44592      24   44598   44595      25   44604   44601      24   44607   44601
      24   44607   44604      25   44613   44610      24   44616   44610      24
   44616   44613      25   44622   44619      24   44625   44619      24   44625
   44622      25   44631   44628      24   44634   44628      24   44634   44631
      25   44640   44637      24   44643   44637      24   44643   44640      25
   44649   44646      24   44652   44646      24   44652   44649      25   44658
   44655      24   44661   44655      24   44661   44658      25   44667   44664
      24   44670   44664      24   44670   44667      25   44676   44673      24
   44679   44673      24   44679   44676      25   44685   44682      24   44688
   44682      24   44688   44685      25   44694   44691      24   44697   44691
      24   44697   44694      25   44703   44700      24   44706   44700      24
   44706   44703      25   44712   44709      24   44715   44709      24   44715
   44712      25   44721   44718      24   44724   44718      24   44724   44721
      25   44730   44727      24   44733   44727      24   44733   44730      25
   44739   44736      24   44742   44736      24   44742   44739      25   44748
   44745      24   44751   44745      24   44751   44748      25   44757   44754
      24   44760   44754      24   44760   44757      25   44766   44763      24
   44769   44763      24   44769   44766      25   44775   44772      24   44778
   44772      24   44778   44775      25   44784   44781      24   44787   44781
      24   44787   44784      25   44793   44790      24   44796   44790      24
   44796   44793      25   44802   44799      24   44805   44799      24   44805
   44802      25   44811   44808      24   44814   44808      24   44814   44811
      25   44820   44817      24   44823   44817      24   44823   44820      25
   44829   44826      24   44832   44826      24   44832   44829      25   44838
   44835      24   44841   44835      24   44841   44838      25   44847   44844
      24   44850   44844      24   44850   44847      25   44856   44853      24
   44859   44853      24   44859   44856      25   44865   44862      24   44868
   44862      24   44868   44865      25   44874   44871      24   44877   44871
      24   44877   44874      25   44883   44880      24   44886   44880      24
   44886   44883      25   44892   44889      24   44895   44889      24   44895
   44892      25   44901   44898      24   44904   44898      24   44904   44901
      25   44910   44907      24   44913   44907      24   44913   44910      25
   44919   44916      24   44922   44916      24   44922   44919      25   44928
   44925      24   44931   44925      24   44931   44928      25   44937   44934
      24   44940   44934      24   44940   44937      25   44946   44943      24
   44949   44943      24   44949   44946      25   44955   44952      24   44958
   44952      24   44958   44955      25   44964   44961      24   44967   44961
      24   44967   44964      25   44973   44970      24   44976   44970      24
   44976   44973      25   44982   44979      24   44985   44979      24   44985
   44982      25   44991   44988      24   44994   44988      24   44994   44991
      25   45000   44997      24   45003   44997      24   45003   45000      25
   45009   45006      24   45012   45006      24   45012   45009      25   45018
   45015      24   45021   45015      24   45021   45018      25   45027   45024
      24   45030   45024      24   45030   45027      25   45036   45033      24
   45039   45033      24   45039   45036      25   45045   45042      24   45048
   45042      24   45048   45045      25   45054   45051      24   45057   45051
      24   45057   45054      25   45063   45060      24   45066   45060      24
   45066   45063      25   45072   45069      24   45075   45069      24   45075
   45072      25   45081   45078      24   45084   45078      24   45084   45081
      25   45090   45087      24   45093   45087      24   45093   45090      25
   45099   45096      24   45102   45096      24   45102   45099      25   45108
   45105      24   45111   45105      24   45111   45108      25   45117   45114
      24   45120   45114      24   45120   45117      25   45126   45123      24
   45129   45123      24   45129   45126      25   45135   45132      24   45138
   45132      24   45138   45135      25   45144   45141      24   45147   45141
      24   45147   45144      25   45153   45150      24   45156   45150      24
   45156   45153      25   45162   45159      24   45165   45159      24   45165
   45162      25   45171   45168      24   45174   45168      24   45174   45171
      25   45180   45177      24   45183   45177      24   45183   45180      25
   45189   45186      24   45192   45186      24   45192   45189      25   45198
   45195      24   45201   45195      24   45201   45198      25   45207   45204
      24   45210   45204      24   45210   45207      25   45216   45213      24
   45219   45213      24   45219   45216      25   45225   45222      24   45228
   45222      24   45228   45225      25   45234   45231      24   45237   45231
      24   45237   45234      25   45243   45240      24   45246   45240      24
   45246   45243      25   45252   45249      24   45255   45249      24   45255
   45252      25   45261   45258      24   45264   45258      24   45264   45261
      25   45270   45267      24   45273   45267      24   45273   45270      25
   45279   45276      24   45282   45276      24   45282   45279      25   45288
   45285      24   45291   45285      24   45291   45288      25   45297   45294
      24   45300   45294      24   45300   45297      25   45306   45303      24
   45309   45303      24   45309   45306      25   45315   45312      24   45318
   45312      24   45318   45315      25   45324   45321      24   45327   45321
      24   45327   45324      25   45333   45330      24   45336   45330      24
   45336   45333      25   45342   45339      24   45345   45339      24   45345
   45342      25   45351   45348      24   45354   45348      24   45354   45351
      25   45360   45357      24   45363   45357      24   45363   45360      25
   45369   45366      24   45372   45366      24   45372   45369      25   45378
   45375      24   45381   45375      24   45381   45378      25   45387   45384
      24   45390   45384      24   45390   45387      25   45396   45393      24
   45399   45393      24   45399   45396      25   45405   45402      24   45408
   45402      24   45408   45405      25   45414   45411      24   45417   45411
      24   45417   45414      25   45423   45420      24   45426   45420      24
   45426   45423      25   45432   45429      24   45435   45429      24   45435
   45432      25   45441   45438      24   45444   45438      24   45444   45441
      25   45450   45447      24   45453   45447      24   45453   45450      25
   45459   45456      24   45462   45456      24   45462   45459      25   45468
   45465      24   45471   45465      24   45471   45468      25   45477   45474
      24   45480   45474      24   45480   45477      25   45486   45483      24
   45489   45483      24   45489   45486      25   45495   45492      24   45498
   45492      24   45498   45495      25   45504   45501      24   45507   45501
      24   45507   45504      25   45513   45510      24   45516   45510      24
   45516   45513      25   45522   45519      24   45525   45519      24   45525
   45522      25   45531   45528      24   45534   45528      24   45534   45531
      25   45540   45537      24   45543   45537      24   45543   45540      25
   45549   45546      24   45552   45546      24   45552   45549      25   45558
   45555      24   45561   45555      24   45561   45558      25   45567   45564
      24   45570   45564      24   45570   45567      25   45576   45573      24
   45579   45573      24   45579   45576      25   45585   45582      24   45588
   45582      24   45588   45585      25   45594   45591      24   45597   45591
      24   45597   45594      25   45603   45600      24   45606   45600      24
   45606   45603      25   45612   45609      24   45615   45609      24   45615
   45612      25   45621   45618      24   45624   45618      24   45624   45621
      25   45630   45627      24   45633   45627      24   45633   45630      25
   45639   45636      24   45642   45636      24   45642   45639      25   45648
   45645      24   45651   45645      24   45651   45648      25   45657   45654
      24   45660   45654      24   45660   45657      25   45666   45663      24
   45669   45663      24   45669   45666      25   45675   45672      24   45678
   45672      24   45678   45675      25   45684   45681      24   45687   45681
      24   45687   45684      25   45693   45690      24   45696   45690      24
   45696   45693      25   45702   45699      24   45705   45699      24   45705
   45702      25   45711   45708      24   45714   45708      24   45714   45711
      25   45720   45717      24   45723   45717      24   45723   45720      25
   45729   45726      24   45732   45726      24   45732   45729      25   45738
   45735      24   45741   45735      24   45741   45738      25   45747   45744
      24   45750   45744      24   45750   45747      25   45756   45753      24
   45759   45753      24   45759   45756      25   45765   45762      24   45768
   45762      24   45768   45765      25   45774   45771      24   45777   45771
      24   45777   45774      25   45783   45780      24   45786   45780      24
   45786   45783      25   45792   45789      24   45795   45789      24   45795
   45792      25   45801   45798      24   45804   45798      24   45804   45801
      25   45810   45807      24   45813   45807      24   45813   45810      25
   45819   45816      24   45822   45816      24   45822   45819      25   45828
   45825      24   45831   45825      24   45831   45828      25   45837   45834
      24   45840   45834      24   45840   45837      25   45846   45843      24
   45849   45843      24   45849   45846      25   45855   45852      24   45858
   45852      24   45858   45855      25   45864   45861      24   45867   45861
      24   45867   45864      25   45873   45870      24   45876   45870      24
   45876   45873      25   45882   45879      24   45885   45879      24   45885
   45882      25   45891   45888      24   45894   45888      24   45894   45891
      25   45900   45897      24   45903   45897      24   45903   45900      25
   45909   45906      24   45912   45906      24   45912   45909      25   45918
   45915      24   45921   45915      24   45921   45918      25   45927   45924
      24   45930   45924      24   45930   45927      25   45936   45933      24
   45939   45933      24   45939   45936      25   45945   45942      24   45948
   45942      24   45948   45945      25   45954   45951      24   45957   45951
      24   45957   45954      25   45963   45960      24   45966   45960      24
   45966   45963      25   45972   45969      24   45975   45969      24   45975
   45972      25   45981   45978      24   45984   45978      24   45984   45981
      25   45990   45987      24   45993   45987      24   45993   45990      25
   45999   45996      24   46002   45996      24   46002   45999      25   46008
   46005      24   46011   46005      24   46011   46008      25   46017   46014
      24   46020   46014      24   46020   46017      25   46026   46023      24
   46029   46023      24   46029   46026      25   46035   46032      24   46038
   46032      24   46038   46035      25   46044   46041      24   46047   46041
      24   46047   46044      25   46053   46050      24   46056   46050      24
   46056   46053      25   46062   46059      24   46065   46059      24   46065
   46062      25   46071   46068      24   46074   46068      24   46074   46071
      25   46080   46077      24   46083   46077      24   46083   46080      25
   46089   46086      24   46092   46086      24   46092   46089      25   46098
   46095      24   46101   46095      24   46101   46098      25   46107   46104
      24   46110   46104      24   46110   46107      25   46116   46113      24
   46119   46113      24   46119   46116      25   46125   46122      24   46128
   46122      24   46128   46125      25   46134   46131      24   46137   46131
      24   46137   46134      25   46143   46140      24   46146   46140      24
   46146   46143      25   46152   46149      24   46155   46149      24   46155
   46152      25   46161   46158      24   46164   46158      24   46164   46161
      25   46170   46167      24   46173   46167      24   46173   46170      25
   46179   46176      24   46182   46176      24   46182   46179      25   46188
   46185      24   46191   46185      24   46191   46188      25   46197   46194
      24   46200   46194      24   46200   46197      25   46206   46203      24
   46209   46203      24   46209   46206      25   46215   46212      24   46218
   46212      24   46218   46215      25   46224   46221      24   46227   46221
      24   46227   46224      25   46233   46230      24   46236   46230      24
   46236   46233      25   46242   46239      24   46245   46239      24   46245
   46242      25   46251   46248      24   46254   46248      24   46254   46251
      25   46260   46257      24   46263   46257      24   46263   46260      25
   46269   46266      24   46272   46266      24   46272   46269      25   46278
   46275      24   46281   46275      24   46281   46278      25   46287   46284
      24   46290   46284      24   46290   46287      25   46296   46293      24
   46299   46293      24   46299   46296      25   46305   46302      24   46308
   46302      24   46308   46305      25   46314   46311      24   46317   46311
      24   46317   46314      25   46323   46320      24   46326   46320      24
   46326   46323      25   46332   46329      24   46335   46329      24   46335
   46332      25   46341   46338      24   46344   46338      24   46344   46341
      25   46350   46347      24   46353   46347      24   46353   46350      25
   46359   46356      24   46362   46356      24   46362   46359      25   46368
   46365      24   46371   46365      24   46371   46368      25   46377   46374
      24   46380   46374      24   46380   46377      25   46386   46383      24
   46389   46383      24   46389   46386      25   46395   46392      24   46398
   46392      24   46398   46395      25   46404   46401      24   46407   46401
      24   46407   46404      25   46413   46410      24   46416   46410      24
   46416   46413      25   46422   46419      24   46425   46419      24   46425
   46422      25   46431   46428      24   46434   46428      24   46434   46431
      25   46440   46437      24   46443   46437      24   46443   46440      25
   46449   46446      24   46452   46446      24   46452   46449      25   46458
   46455      24   46461   46455      24   46461   46458      25   46467   46464
      24   46470   46464      24   46470   46467      25   46476   46473      24
   46479   46473      24   46479   46476      25   46485   46482      24   46488
   46482      24   46488   46485      25   46494   46491      24   46497   46491
      24   46497   46494      25   46503   46500      24   46506   46500      24
   46506   46503      25   46512   46509      24   46515   46509      24   46515
   46512      25   46521   46518      24   46524   46518      24   46524   46521
      25   46530   46527      24   46533   46527      24   46533   46530      25
   46539   46536      24   46542   46536      24   46542   46539      25   46548
   46545      24   46551   46545      24   46551   46548      25   46557   46554
      24   46560   46554      24   46560   46557      25   46566   46563      24
   46569   46563      24   46569   46566      25   46575   46572      24   46578
   46572      24   46578   46575      25   46584   46581      24   46587   46581
      24   46587   46584      25   46593   46590      24   46596   46590      24
   46596   46593      25   46602   46599      24   46605   46599      24   46605
   46602      25   46611   46608      24   46614   46608      24   46614   46611
      25   46620   46617      24   46623   46617      24   46623   46620      25
   46629   46626      24   46632   46626      24   46632   46629      25   46638
   46635      24   46641   46635      24   46641   46638      25   46647   46644
      24   46650   46644      24   46650   46647      25   46656   46653      24
   46659   46653      24   46659   46656      25   46665   46662      24   46668
   46662      24   46668   46665      25   46674   46671      24   46677   46671
      24   46677   46674      25   46683   46680      24   46686   46680      24
   46686   46683      25   46692   46689      24   46695   46689      24   46695
   46692      25   46701   46698      24   46704   46698      24   46704   46701
      25   46710   46707      24   46713   46707      24   46713   46710      25
   46719   46716      24   46722   46716      24   46722   46719      25   46728
   46725      24   46731   46725      24   46731   46728      25   46737   46734
      24   46740   46734      24   46740   46737      25   46746   46743      24
   46749   46743      24   46749   46746      25   46755   46752      24   46758
   46752      24   46758   46755      25   46764   46761      24   46767   46761
      24   46767   46764      25   46773   46770      24   46776   46770      24
   46776   46773      25   46782   46779      24   46785   46779      24   46785
   46782      25   46791   46788      24   46794   46788      24   46794   46791
      25   46800   46797      24   46803   46797      24   46803   46800      25
   46809   46806      24   46812   46806      24   46812   46809      25   46818
   46815      24   46821   46815      24   46821   46818      25   46827   46824
      24   46830   46824      24   46830   46827      25   46836   46833      24
   46839   46833      24   46839   46836      25   46845   46842      24   46848
   46842      24   46848   46845      25   46854   46851      24   46857   46851
      24   46857   46854      25   46863   46860      24   46866   46860      24
   46866   46863      25   46872   46869      24   46875   46869      24   46875
   46872      25   46881   46878      24   46884   46878      24   46884   46881
      25   46890   46887      24   46893   46887      24   46893   46890      25
   46899   46896      24   46902   46896      24   46902   46899      25   46908
   46905      24   46911   46905      24   46911   46908      25   46917   46914
      24   46920   46914      24   46920   46917      25   46926   46923      24
   46929   46923      24   46929   46926      25   46935   46932      24   46938
   46932      24   46938   46935      25   46944   46941      24   46947   46941
      24   46947   46944      25   46953   46950      24   46956   46950      24
   46956   46953      25   46962   46959      24   46965   46959      24   46965
   46962      25   46971   46968      24   46974   46968      24   46974   46971
      25   46980   46977      24   46983   46977      24   46983   46980      25
   46989   46986      24   46992   46986      24   46992   46989      25   46998
   46995      24   47001   46995      24   47001   46998      25   47007   47004
      24   47010   47004      24   47010   47007      25   47016   47013      24
   47019   47013      24   47019   47016      25   47025   47022      24   47028
   47022      24   47028   47025      25   47034   47031      24   47037   47031
      24   47037   47034      25   47043   47040      24   47046   47040      24
   47046   47043      25   47052   47049      24   47055   47049      24   47055
   47052      25   47061   47058      24   47064   47058      24   47064   47061
      25   47070   47067      24   47073   47067      24   47073   47070      25
   47079   47076      24   47082   47076      24   47082   47079      25   47088
   47085      24   47091   47085      24   47091   47088      25   47097   47094
      24   47100   47094      24   47100   47097      25   47106   47103      24
   47109   47103      24   47109   47106      25   47115   47112      24   47118
   47112      24   47118   47115      25   47124   47121      24   47127   47121
      24   47127   47124      25   47133   47130      24   47136   47130      24
   47136   47133      25   47142   47139      24   47145   47139      24   47145
   47142      25   47151   47148      24   47154   47148      24   47154   47151
      25   47160   47157      24   47163   47157      24   47163   47160      25
   47169   47166      24   47172   47166      24   47172   47169      25   47178
   47175      24   47181   47175      24   47181   47178      25   47187   47184
      24   47190   47184      24   47190   47187      25   47196   47193      24
   47199   47193      24   47199   47196      25   47205   47202      24   47208
   47202      24   47208   47205      25   47214   47211      24   47217   47211
      24   47217   47214      25   47223   47220      24   47226   47220      24
   47226   47223      25   47232   47229      24   47235   47229      24   47235
   47232      25   47241   47238      24   47244   47238      24   47244   47241
      25   47250   47247      24   47253   47247      24   47253   47250      25
   47259   47256      24   47262   47256      24   47262   47259      25   47268
   47265      24   47271   47265      24   47271   47268      25   47277   47274
      24   47280   47274      24   47280   47277      25   47286   47283      24
   47289   47283      24   47289   47286      25   47295   47292      24   47298
   47292      24   47298   47295      25   47304   47301      24   47307   47301
      24   47307   47304      25   47313   47310      24   47316   47310      24
   47316   47313      25   47322   47319      24   47325   47319      24   47325
   47322      25   47331   47328      24   47334   47328      24   47334   47331
      25   47340   47337      24   47343   47337      24   47343   47340      25
   47349   47346      24   47352   47346      24   47352   47349      25   47358
   47355      24   47361   47355      24   47361   47358      25   47367   47364
      24   47370   47364      24   47370   47367      25   47376   47373      24
   47379   47373      24   47379   47376      25   47385   47382      24   47388
   47382      24   47388   47385      25   47394   47391      24   47397   47391
      24   47397   47394      25   47403   47400      24   47406   47400      24
   47406   47403      25   47412   47409      24   47415   47409      24   47415
   47412      25   47421   47418      24   47424   47418      24   47424   47421
      25   47430   47427      24   47433   47427      24   47433   47430      25
   47439   47436      24   47442   47436      24   47442   47439      25   47448
   47445      24   47451   47445      24   47451   47448      25   47457   47454
      24   47460   47454      24   47460   47457      25   47466   47463      24
   47469   47463      24   47469   47466      25   47475   47472      24   47478
   47472      24   47478   47475      25   47484   47481      24   47487   47481
      24   47487   47484      25   47493   47490      24   47496   47490      24
   47496   47493      25   47502   47499      24   47505   47499      24   47505
   47502      25   47511   47508      24   47514   47508      24   47514   47511
      25   47520   47517      24   47523   47517      24   47523   47520      25
   47529   47526      24   47532   47526      24   47532   47529      25   47538
   47535      24   47541   47535      24   47541   47538      25   47547   47544
      24   47550   47544      24   47550   47547      25   47556   47553      24
   47559   47553      24   47559   47556      25   47565   47562      24   47568
   47562      24   47568   47565      25   47574   47571      24   47577   47571
      24   47577   47574      25   47583   47580      24   47586   47580      24
   47586   47583      25   47592   47589      24   47595   47589      24   47595
   47592      25   47601   47598      24   47604   47598      24   47604   47601
      25   47610   47607      24   47613   47607      24   47613   47610      25
   47619   47616      24   47622   47616      24   47622   47619      25   47628
   47625      24   47631   47625      24   47631   47628      25   47637   47634
      24   47640   47634      24   47640   47637      25   47646   47643      24
   47649   47643      24   47649   47646      25   47655   47652      24   47658
   47652      24   47658   47655      25   47664   47661      24   47667   47661
      24   47667   47664      25   47673   47670      24   47676   47670      24
   47676   47673      25   47682   47679      24   47685   47679      24   47685
   47682      25   47691   47688      24   47694   47688      24   47694   47691
      25   47700   47697      24   47703   47697      24   47703   47700      25
   47709   47706      24   47712   47706      24   47712   47709      25   47718
   47715      24   47721   47715      24   47721   47718      25   47727   47724
      24   47730   47724      24   47730   47727      25   47736   47733      24
   47739   47733      24   47739   47736      25   47745   47742      24   47748
   47742      24   47748   47745      25   47754   47751      24   47757   47751
      24   47757   47754      25   47763   47760      24   47766   47760      24
   47766   47763      25   47772   47769      24   47775   47769      24   47775
   47772      25   47781   47778      24   47784   47778      24   47784   47781
      25   47790   47787      24   47793   47787      24   47793   47790      25
   47799   47796      24   47802   47796      24   47802   47799      25   47808
   47805      24   47811   47805      24   47811   47808      25   47817   47814
      24   47820   47814      24   47820   47817      25   47826   47823      24
   47829   47823      24   47829   47826      25   47835   47832      24   47838
   47832      24   47838   47835      25   47844   47841      24   47847   47841
      24   47847   47844      25   47853   47850      24   47856   47850      24
   47856   47853      25   47862   47859      24   47865   47859      24   47865
   47862      25   47871   47868      24   47874   47868      24   47874   47871
      25   47880   47877      24   47883   47877      24   47883   47880      25
   47889   47886      24   47892   47886      24   47892   47889      25   47898
   47895      24   47901   47895      24   47901   47898      25   47907   47904
      24   47910   47904      24   47910   47907      25   47916   47913      24
   47919   47913      24   47919   47916      25   47925   47922      24   47928
   47922      24   47928   47925      25   47934   47931      24   47937   47931
      24   47937   47934      25   47943   47940      24   47946   47940      24
   47946   47943      25   47952   47949      24   47955   47949      24   47955
   47952      25   47961   47958      24   47964   47958      24   47964   47961
      25   47970   47967      24   47973   47967      24   47973   47970      25
   47979   47976      24   47982   47976      24   47982   47979      25   47988
   47985      24   47991   47985      24   47991   47988      25   47997   47994
      24   48000   47994      24   48000   47997      25   48006   48003      24
   48009   48003      24   48009   48006      25   48015   48012      24   48018
   48012      24   48018   48015      25   48024   48021      24   48027   48021
      24   48027   48024      25   48033   48030      24   48036   48030      24
   48036   48033      25   48042   48039      24   48045   48039      24   48045
   48042      25   48051   48048      24   48054   48048      24   48054   48051
      25   48060   48057      24   48063   48057      24   48063   48060      25
   48069   48066      24   48072   48066      24   48072   48069      25   48078
   48075      24   48081   48075      24   48081   48078      25   48087   48084
      24   48090   48084      24   48090   48087      25   48096   48093      24
   48099   48093      24   48099   48096      25   48105   48102      24   48108
   48102      24   48108   48105      25   48114   48111      24   48117   48111
      24   48117   48114      25   48123   48120      24   48126   48120      24
   48126   48123      25   48132   48129      24   48135   48129      24   48135
   48132      25   48141   48138      24   48144   48138      24   48144   48141
      25   48150   48147      24   48153   48147      24   48153   48150      25
   48159   48156      24   48162   48156      24   48162   48159      25   48168
   48165      24   48171   48165      24   48171   48168      25   48177   48174
      24   48180   48174      24   48180   48177      25   48186   48183      24
   48189   48183      24   48189   48186      25   48195   48192      24   48198
   48192      24   48198   48195      25   48204   48201      24   48207   48201
      24   48207   48204      25   48213   48210      24   48216   48210      24
   48216   48213      25   48222   48219      24   48225   48219      24   48225
   48222      25   48231   48228      24   48234   48228      24   48234   48231
      25   48240   48237      24   48243   48237      24   48243   48240      25
   48249   48246      24   48252   48246      24   48252   48249      25   48258
   48255      24   48261   48255      24   48261   48258      25   48267   48264
      24   48270   48264      24   48270   48267      25   48276   48273      24
   48279   48273      24   48279   48276      25   48285   48282      24   48288
   48282      24   48288   48285      25   48294   48291      24   48297   48291
      24   48297   48294      25   48303   48300      24   48306   48300      24
   48306   48303      25   48312   48309      24   48315   48309      24   48315
   48312      25   48321   48318      24   48324   48318      24   48324   48321
      25   48330   48327      24   48333   48327      24   48333   48330      25
   48339   48336      24   48342   48336      24   48342   48339      25   48348
   48345      24   48351   48345      24   48351   48348      25   48357   48354
      24   48360   48354      24   48360   48357      25   48366   48363      24
   48369   48363      24   48369   48366      25   48375   48372      24   48378
   48372      24   48378   48375      25   48384   48381      24   48387   48381
      24   48387   48384      25   48393   48390      24   48396   48390      24
   48396   48393      25   48402   48399      24   48405   48399      24   48405
   48402      25   48411   48408      24   48414   48408      24   48414   48411
      25   48420   48417      24   48423   48417      24   48423   48420      25
   48429   48426      24   48432   48426      24   48432   48429      25   48438
   48435      24   48441   48435      24   48441   48438      25   48447   48444
      24   48450   48444      24   48450   48447      25   48456   48453      24
   48459   48453      24   48459   48456      25   48465   48462      24   48468
   48462      24   48468   48465      25   48474   48471      24   48477   48471
      24   48477   48474      25   48483   48480      24   48486   48480      24
   48486   48483      25   48492   48489      24   48495   48489      24   48495
   48492      25   48501   48498      24   48504   48498      24   48504   48501
      25   48510   48507      24   48513   48507      24   48513   48510      25
   48519   48516      24   48522   48516      24   48522   48519      25   48528
   48525      24   48531   48525      24   48531   48528      25   48537   48534
      24   48540   48534      24   48540   48537      25   48546   48543      24
   48549   48543      24   48549   48546      25   48555   48552      24   48558
   48552      24   48558   48555      25   48564   48561      24   48567   48561
      24   48567   48564      25   48573   48570      24   48576   48570      24
   48576   48573      25   48582   48579      24   48585   48579      24   48585
   48582      25   48591   48588      24   48594   48588      24   48594   48591
      25   48600   48597      24   48603   48597      24   48603   48600      25
   48609   48606      24   48612   48606      24   48612   48609      25   48618
   48615      24   48621   48615      24   48621   48618      25   48627   48624
      24   48630   48624      24   48630   48627      25   48636   48633      24
   48639   48633      24   48639   48636      25   48645   48642      24   48648
   48642      24   48648   48645      25   48654   48651      24   48657   48651
      24   48657   48654      25   48663   48660      24   48666   48660      24
   48666   48663      25   48672   48669      24   48675   48669      24   48675
   48672      25   48681   48678      24   48684   48678      24   48684   48681
      25   48690   48687      24   48693   48687      24   48693   48690      25
   48699   48696      24   48702   48696      24   48702   48699      25   48708
   48705      24   48711   48705      24   48711   48708      25   48717   48714
      24   48720   48714      24   48720   48717      25   48726   48723      24
   48729   48723      24   48729   48726      25   48735   48732      24   48738
   48732      24   48738   48735      25   48744   48741      24   48747   48741
      24   48747   48744      25   48753   48750      24   48756   48750      24
   48756   48753      25   48762   48759      24   48765   48759      24   48765
   48762      25   48771   48768      24   48774   48768      24   48774   48771
      25   48780   48777      24   48783   48777      24   48783   48780      25
   48789   48786      24   48792   48786      24   48792   48789      25   48798
   48795      24   48801   48795      24   48801   48798      25   48807   48804
      24   48810   48804      24   48810   48807      25   48816   48813      24
   48819   48813      24   48819   48816      25   48825   48822      24   48828
   48822      24   48828   48825      25   48834   48831      24   48837   48831
      24   48837   48834      25   48843   48840      24   48846   48840      24
   48846   48843      25   48852   48849      24   48855   48849      24   48855
   48852      25   48861   48858      24   48864   48858      24   48864   48861
      25   48870   48867      24   48873   48867      24   48873   48870      25
   48879   48876      24   48882   48876      24   48882   48879      25   48888
   48885      24   48891   48885      24   48891   48888      25   48897   48894
      24   48900   48894      24   48900   48897      25   48906   48903      24
   48909   48903      24   48909   48906      25   48915   48912      24   48918
   48912      24   48918   48915      25   48924   48921      24   48927   48921
      24   48927   48924      25   48933   48930      24   48936   48930      24
   48936   48933      25   48942   48939      24   48945   48939      24   48945
   48942      25   48951   48948      24   48954   48948      24   48954   48951
      25   48960   48957      24   48963   48957      24   48963   48960      25
   48969   48966      24   48972   48966      24   48972   48969      25   48978
   48975      24   48981   48975      24   48981   48978      25   48987   48984
      24   48990   48984      24   48990   48987      25   48996   48993      24
   48999   48993      24   48999   48996      25   49005   49002      24   49008
   49002      24   49008   49005      25   49014   49011      24   49017   49011
      24   49017   49014      25   49023   49020      24   49026   49020      24
   49026   49023      25   49032   49029      24   49035   49029      24   49035
   49032      25   49041   49038      24   49044   49038      24   49044   49041
      25   49050   49047      24   49053   49047      24   49053   49050      25
   49059   49056      24   49062   49056      24   49062   49059      25   49068
   49065      24   49071   49065      24   49071   49068      25   49077   49074
      24   49080   49074      24   49080   49077      25   49086   49083      24
   49089   49083      24   49089   49086      25   49095   49092      24   49098
   49092      24   49098   49095      25   49104   49101      24   49107   49101
      24   49107   49104      25   49113   49110      24   49116   49110      24
   49116   49113      25   49122   49119      24   49125   49119      24   49125
   49122      25   49131   49128      24   49134   49128      24   49134   49131
      25   49140   49137      24   49143   49137      24   49143   49140      25
   49149   49146      24   49152   49146      24   49152   49149      25   49158
   49155      24   49161   49155      24   49161   49158      25   49167   49164
      24   49170   49164      24   49170   49167      25   49176   49173      24
   49179   49173      24   49179   49176      25   49185   49182      24   49188
   49182      24   49188   49185      25   49194   49191      24   49197   49191
      24   49197   49194      25   49203   49200      24   49206   49200      24
   49206   49203      25   49212   49209      24   49215   49209      24   49215
   49212      25   49221   49218      24   49224   49218      24   49224   49221
      25   49230   49227      24   49233   49227      24   49233   49230      25
   49239   49236      24   49242   49236      24   49242   49239      25   49248
   49245      24   49251   49245      24   49251   49248      25   49257   49254
      24   49260   49254      24   49260   49257      25   49266   49263      24
   49269   49263      24   49269   49266      25   49275   49272      24   49278
   49272      24   49278   49275      25   49284   49281      24   49287   49281
      24   49287   49284      25   49293   49290      24   49296   49290      24
   49296   49293      25   49302   49299      24   49305   49299      24   49305
   49302      25   49311   49308      24   49314   49308      24   49314   49311
      25   49320   49317      24   49323   49317      24   49323   49320      25
   49329   49326      24   49332   49326      24   49332   49329      25   49338
   49335      24   49341   49335      24   49341   49338      25   49347   49344
      24   49350   49344      24   49350   49347      25   49356   49353      24
   49359   49353      24   49359   49356      25   49365   49362      24   49368
   49362      24   49368   49365      25   49374   49371      24   49377   49371
      24   49377   49374      25   49383   49380      24   49386   49380      24
   49386   49383      25   49392   49389      24   49395   49389      24   49395
   49392      25   49401   49398      24   49404   49398      24   49404   49401
      25   49410   49407      24   49413   49407      24   49413   49410      25
   49419   49416      24   49422   49416      24   49422   49419      25   49428
   49425      24   49431   49425      24   49431   49428      25   49437   49434
      24   49440   49434      24   49440   49437      25   49446   49443      24
   49449   49443      24   49449   49446      25   49455   49452      24   49458
   49452      24   49458   49455      25   49464   49461      24   49467   49461
      24   49467   49464      25   49473   49470      24   49476   49470      24
   49476   49473      25   49482   49479      24   49485   49479      24   49485
   49482      25   49491   49488      24   49494   49488      24   49494   49491
      25   49500   49497      24   49503   49497      24   49503   49500      25
   49509   49506      24   49512   49506      24   49512   49509      25   49518
   49515      24   49521   49515      24   49521   49518      25   49527   49524
      24   49530   49524      24   49530   49527      25   49536   49533      24
   49539   49533      24   49539   49536      25   49545   49542      24   49548
   49542      24   49548   49545      25   49554   49551      24   49557   49551
      24   49557   49554      25   49563   49560      24   49566   49560      24
   49566   49563      25   49572   49569      24   49575   49569      24   49575
   49572      25   49581   49578      24   49584   49578      24   49584   49581
      25   49590   49587      24   49593   49587      24   49593   49590      25
   49599   49596      24   49602   49596      24   49602   49599      25   49608
   49605      24   49611   49605      24   49611   49608      25   49617   49614
      24   49620   49614      24   49620   49617      25   49626   49623      24
   49629   49623      24   49629   49626      25   49635   49632      24   49638
   49632      24   49638   49635      25   49644   49641      24   49647   49641
      24   49647   49644      25   49653   49650      24   49656   49650      24
   49656   49653      25   49662   49659      24   49665   49659      24   49665
   49662      25   49671   49668      24   49674   49668      24   49674   49671
      25   49680   49677      24   49683   49677      24   49683   49680      25
   49689   49686      24   49692   49686      24   49692   49689      25   49698
   49695      24   49701   49695      24   49701   49698      25   49707   49704
      24   49710   49704      24   49710   49707      25   49716   49713      24
   49719   49713      24   49719   49716      25   49725   49722      24   49728
   49722      24   49728   49725      25   49734   49731      24   49737   49731
      24   49737   49734      25   49743   49740      24   49746   49740      24
   49746   49743      25   49752   49749      24   49755   49749      24   49755
   49752      25   49761   49758      24   49764   49758      24   49764   49761
      25   49770   49767      24   49773   49767      24   49773   49770      25
   49779   49776      24   49782   49776      24   49782   49779      25   49788
   49785      24   49791   49785      24   49791   49788      25   49797   49794
      24   49800   49794      24   49800   49797      25   49806   49803      24
   49809   49803      24   49809   49806      25   49815   49812      24   49818
   49812      24   49818   49815      25   49824   49821      24   49827   49821
      24   49827   49824      25   49833   49830      24   49836   49830      24
   49836   49833      25   49842   49839      24   49845   49839      24   49845
   49842      25   49851   49848      24   49854   49848      24   49854   49851
      25   49860   49857      24   49863   49857      24   49863   49860      25
   49869   49866      24   49872   49866      24   49872   49869      25   49878
   49875      24   49881   49875      24   49881   49878      25   49887   49884
      24   49890   49884      24   49890   49887      25   49896   49893      24
   49899   49893      24   49899   49896      25   49905   49902      24   49908
   49902      24   49908   49905      25   49914   49911      24   49917   49911
      24   49917   49914      25   49923   49920      24   49926   49920      24
   49926   49923      25   49932   49929      24   49935   49929      24   49935
   49932      25   49941   49938      24   49944   49938      24   49944   49941
      25   49950   49947      24   49953   49947      24   49953   49950      25
   49959   49956      24   49962   49956      24   49962   49959      25   49968
   49965      24   49971   49965      24   49971   49968      25   49977   49974
      24   49980   49974      24   49980   49977      25   49986   49983      24
   49989   49983      24   49989   49986      25   49995   49992      24   49998
   49992      24   49998   49995      25   50004   50001      24   50007   50001
      24   50007   50004      25   50013   50010      24   50016   50010      24
   50016   50013      25   50022   50019      24   50025   50019      24   50025
   50022      25   50031   50028      24   50034   50028      24   50034   50031
      25   50040   50037      24   50043   50037      24   50043   50040      25
   50049   50046      24   50052   50046      24   50052   50049      25   50058
   50055      24   50061   50055      24   50061   50058      25   50067   50064
      24   50070   50064      24   50070   50067      25   50076   50073      24
   50079   50073      24   50079   50076      25   50085   50082      24   50088
   50082      24   50088   50085      25   50094   50091      24   50097   50091
      24   50097   50094      25   50103   50100      24   50106   50100      24
   50106   50103      25   50112   50109      24   50115   50109      24   50115
   50112      25   50121   50118      24   50124   50118      24   50124   50121
      25   50130   50127      24   50133   50127      24   50133   50130      25
   50139   50136      24   50142   50136      24   50142   50139      25   50148
   50145      24   50151   50145      24   50151   50148      25   50157   50154
      24   50160   50154      24   50160   50157      25   50166   50163      24
   50169   50163      24   50169   50166      25   50175   50172      24   50178
   50172      24   50178   50175      25   50184   50181      24   50187   50181
      24   50187   50184      25   50193   50190      24   50196   50190      24
   50196   50193      25   50202   50199      24   50205   50199      24   50205
   50202      25   50211   50208      24   50214   50208      24   50214   50211
      25   50220   50217      24   50223   50217      24   50223   50220      25
   50229   50226      24   50232   50226      24   50232   50229      25   50238
   50235      24   50241   50235      24   50241   50238      25   50247   50244
      24   50250   50244      24   50250   50247      25   50256   50253      24
   50259   50253      24   50259   50256      25   50265   50262      24   50268
   50262      24   50268   50265      25   50274   50271      24   50277   50271
      24   50277   50274      25   50283   50280      24   50286   50280      24
   50286   50283      25   50292   50289      24   50295   50289      24   50295
   50292      25   50301   50298      24   50304   50298      24   50304   50301
      25   50310   50307      24   50313   50307      24   50313   50310      25
   50319   50316      24   50322   50316      24   50322   50319      25   50328
   50325      24   50331   50325      24   50331   50328      25   50337   50334
      24   50340   50334      24   50340   50337      25   50346   50343      24
   50349   50343      24   50349   50346      25   50355   50352      24   50358
   50352      24   50358   50355      25   50364   50361      24   50367   50361
      24   50367   50364      25   50373   50370      24   50376   50370      24
   50376   50373      25   50382   50379      24   50385   50379      24   50385
   50382      25   50391   50388      24   50394   50388      24   50394   50391
      25   50400   50397      24   50403   50397      24   50403   50400      25
   50409   50406      24   50412   50406      24   50412   50409      25   50418
   50415      24   50421   50415      24   50421   50418      25   50427   50424
      24   50430   50424      24   50430   50427      25   50436   50433      24
   50439   50433      24   50439   50436      25   50445   50442      24   50448
   50442      24   50448   50445      25   50454   50451      24   50457   50451
      24   50457   50454      25   50463   50460      24   50466   50460      24
   50466   50463      25   50472   50469      24   50475   50469      24   50475
   50472      25   50481   50478      24   50484   50478      24   50484   50481
      25   50490   50487      24   50493   50487      24   50493   50490      25
   50499   50496      24   50502   50496      24   50502   50499      25   50508
   50505      24   50511   50505      24   50511   50508      25   50517   50514
      24   50520   50514      24   50520   50517      25   50526   50523      24
   50529   50523      24   50529   50526      25   50535   50532      24   50538
   50532      24   50538   50535      25   50544   50541      24   50547   50541
      24   50547   50544      25   50553   50550      24   50556   50550      24
   50556   50553      25   50562   50559      24   50565   50559      24   50565
   50562      25   50571   50568      24   50574   50568      24   50574   50571
      25   50580   50577      24   50583   50577      24   50583   50580      25
   50589   50586      24   50592   50586      24   50592   50589      25   50598
   50595      24   50601   50595      24   50601   50598      25   50607   50604
      24   50610   50604      24   50610   50607      25   50616   50613      24
   50619   50613      24   50619   50616      25   50625   50622      24   50628
   50622      24   50628   50625      25   50634   50631      24   50637   50631
      24   50637   50634      25   50643   50640      24   50646   50640      24
   50646   50643      25   50652   50649      24   50655   50649      24   50655
   50652      25   50661   50658      24   50664   50658      24   50664   50661
      25   50670   50667      24   50673   50667      24   50673   50670      25
   50679   50676      24   50682   50676      24   50682   50679      25   50688
   50685      24   50691   50685      24   50691   50688      25   50697   50694
      24   50700   50694      24   50700   50697      25   50706   50703      24
   50709   50703      24   50709   50706      25   50715   50712      24   50718
   50712      24   50718   50715      25   50724   50721      24   50727   50721
      24   50727   50724      25   50733   50730      24   50736   50730      24
   50736   50733      25   50742   50739      24   50745   50739      24   50745
   50742      25   50751   50748      24   50754   50748      24   50754   50751
      25   50760   50757      24   50763   50757      24   50763   50760      25
   50769   50766      24   50772   50766      24   50772   50769      25   50778
   50775      24   50781   50775      24   50781   50778      25   50787   50784
      24   50790   50784      24   50790   50787      25   50796   50793      24
   50799   50793      24   50799   50796      25   50805   50802      24   50808
   50802      24   50808   50805      25   50814   50811      24   50817   50811
      24   50817   50814      25   50823   50820      24   50826   50820      24
   50826   50823      25   50832   50829      24   50835   50829      24   50835
   50832      25   50841   50838      24   50844   50838      24   50844   50841
      25   50850   50847      24   50853   50847      24   50853   50850      25
   50859   50856      24   50862   50856      24   50862   50859      25   50868
   50865      24   50871   50865      24   50871   50868      25   50877   50874
      24   50880   50874      24   50880   50877      25   50886   50883      24
   50889   50883      24   50889   50886      25   50895   50892      24   50898
   50892      24   50898   50895      25   50904   50901      24   50907   50901
      24   50907   50904      25   50913   50910      24   50916   50910      24
   50916   50913      25   50922   50919      24   50925   50919      24   50925
   50922      25   50931   50928      24   50934   50928      24   50934   50931
      25   50940   50937      24   50943   50937      24   50943   50940      25
   50949   50946      24   50952   50946      24   50952   50949      25   50958
   50955      24   50961   50955      24   50961   50958      25   50967   50964
      24   50970   50964      24   50970   50967      25   50976   50973      24
   50979   50973      24   50979   50976      25   50985   50982      24   50988
   50982      24   50988   50985      25   50994   50991      24   50997   50991
      24   50997   50994      25   51003   51000      24   51006   51000      24
   51006   51003      25   51012   51009      24   51015   51009      24   51015
   51012      25   51021   51018      24   51024   51018      24   51024   51021
      25   51030   51027      24   51033   51027      24   51033   51030      25
   51039   51036      24   51042   51036      24   51042   51039      25   51048
   51045      24   51051   51045      24   51051   51048      25   51057   51054
      24   51060   51054      24   51060   51057      25   51066   51063      24
   51069   51063      24   51069   51066      25   51075   51072      24   51078
   51072      24   51078   51075      25   51084   51081      24   51087   51081
      24   51087   51084      25   51093   51090      24   51096   51090      24
   51096   51093      25   51102   51099      24   51105   51099      24   51105
   51102      25   51111   51108      24   51114   51108      24   51114   51111
      25   51120   51117      24   51123   51117      24   51123   51120      25
   51129   51126      24   51132   51126      24   51132   51129      25   51138
   51135      24   51141   51135      24   51141   51138      25   51147   51144
      24   51150   51144      24   51150   51147      25   51156   51153      24
   51159   51153      24   51159   51156      25   51165   51162      24   51168
   51162      24   51168   51165      25   51174   51171      24   51177   51171
      24   51177   51174      25   51183   51180      24   51186   51180      24
   51186   51183      25   51192   51189      24   51195   51189      24   51195
   51192      25   51201   51198      24   51204   51198      24   51204   51201
      25   51210   51207      24   51213   51207      24   51213   51210      25
   51219   51216      24   51222   51216      24   51222   51219      25   51228
   51225      24   51231   51225      24   51231   51228      25   51237   51234
      24   51240   51234      24   51240   51237      25   51246   51243      24
   51249   51243      24   51249   51246      25   51255   51252      24   51258
   51252      24   51258   51255      25   51264   51261      24   51267   51261
      24   51267   51264      25   51273   51270      24   51276   51270      24
   51276   51273      25   51282   51279      24   51285   51279      24   51285
   51282      25   51291   51288      24   51294   51288      24   51294   51291
      25   51300   51297      24   51303   51297      24   51303   51300      25
   51309   51306      24   51312   51306      24   51312   51309      25   51318
   51315      24   51321   51315      24   51321   51318      25   51327   51324
      24   51330   51324      24   51330   51327      25   51336   51333      24
   51339   51333      24   51339   51336      25   51345   51342      24   51348
   51342      24   51348   51345      25   51354   51351      24   51357   51351
      24   51357   51354      25   51363   51360      24   51366   51360      24
   51366   51363      25   51372   51369      24   51375   51369      24   51375
   51372      25   51381   51378      24   51384   51378      24   51384   51381
      25   51390   51387      24   51393   51387      24   51393   51390      25
   51399   51396      24   51402   51396      24   51402   51399      25   51408
   51405      24   51411   51405      24   51411   51408      25   51417   51414
      24   51420   51414      24   51420   51417      25   51426   51423      24
   51429   51423      24   51429   51426      25   51435   51432      24   51438
   51432      24   51438   51435      25   51444   51441      24   51447   51441
      24   51447   51444      25   51453   51450      24   51456   51450      24
   51456   51453      25   51462   51459      24   51465   51459      24   51465
   51462      25   51471   51468      24   51474   51468      24   51474   51471
      25   51480   51477      24   51483   51477      24   51483   51480      25
   51489   51486      24   51492   51486      24   51492   51489      25   51498
   51495      24   51501   51495      24   51501   51498      25   51507   51504
      24   51510   51504      24   51510   51507      25   51516   51513      24
   51519   51513      24   51519   51516      25   51525   51522      24   51528
   51522      24   51528   51525      25   51534   51531      24   51537   51531
      24   51537   51534      25   51543   51540      24   51546   51540      24
   51546   51543      25   51552   51549      24   51555   51549      24   51555
   51552      25   51561   51558      24   51564   51558      24   51564   51561
      25   51570   51567      24   51573   51567      24   51573   51570      25
   51579   51576      24   51582   51576      24   51582   51579      25   51588
   51585      24   51591   51585      24   51591   51588      25   51597   51594
      24   51600   51594      24   51600   51597      25   51606   51603      24
   51609   51603      24   51609   51606      25   51615   51612      24   51618
   51612      24   51618   51615      25   51624   51621      24   51627   51621
      24   51627   51624      25   51633   51630      24   51636   51630      24
   51636   51633      25   51642   51639      24   51645   51639      24   51645
   51642      25   51651   51648      24   51654   51648      24   51654   51651
      25   51660   51657      24   51663   51657      24   51663   51660      25
   51669   51666      24   51672   51666      24   51672   51669      25   51678
   51675      24   51681   51675      24   51681   51678      25   51687   51684
      24   51690   51684      24   51690   51687      25   51696   51693      24
   51699   51693      24   51699   51696      25   51705   51702      24   51708
   51702      24   51708   51705      25   51714   51711      24   51717   51711
      24   51717   51714      25   51723   51720      24   51726   51720      24
   51726   51723      25   51732   51729      24   51735   51729      24   51735
   51732      25   51741   51738      24   51744   51738      24   51744   51741
      25   51750   51747      24   51753   51747      24   51753   51750      25
   51759   51756      24   51762   51756      24   51762   51759      25   51768
   51765      24   51771   51765      24   51771   51768      25   51777   51774
      24   51780   51774      24   51780   51777      25   51786   51783      24
   51789   51783      24   51789   51786      25   51795   51792      24   51798
   51792      24   51798   51795      25   51804   51801      24   51807   51801
      24   51807   51804      25   51813   51810      24   51816   51810      24
   51816   51813      25   51822   51819      24   51825   51819      24   51825
   51822      25   51831   51828      24   51834   51828      24   51834   51831
      25   51840   51837      24   51843   51837      24   51843   51840      25
   51849   51846      24   51852   51846      24   51852   51849      25   51858
   51855      24   51861   51855      24   51861   51858      25   51867   51864
      24   51870   51864      24   51870   51867      25   51876   51873      24
   51879   51873      24   51879   51876      25   51885   51882      24   51888
   51882      24   51888   51885      25   51894   51891      24   51897   51891
      24   51897   51894      25   51903   51900      24   51906   51900      24
   51906   51903      25   51912   51909      24   51915   51909      24   51915
   51912      25   51921   51918      24   51924   51918      24   51924   51921
      25   51930   51927      24   51933   51927      24   51933   51930      25
   51939   51936      24   51942   51936      24   51942   51939      25   51948
   51945      24   51951   51945      24   51951   51948      25   51957   51954
      24   51960   51954      24   51960   51957      25   51966   51963      24
   51969   51963      24   51969   51966      25   51975   51972      24   51978
   51972      24   51978   51975      25   51984   51981      24   51987   51981
      24   51987   51984      25   51993   51990      24   51996   51990      24
   51996   51993      25   52002   51999      24   52005   51999      24   52005
   52002      25   52011   52008      24   52014   52008      24   52014   52011
      25   52020   52017      24   52023   52017      24   52023   52020      25
   52029   52026      24   52032   52026      24   52032   52029      25   52038
   52035      24   52041   52035      24   52041   52038      25   52047   52044
      24   52050   52044      24   52050   52047      25   52056   52053      24
   52059   52053      24   52059   52056      25   52065   52062      24   52068
   52062      24   52068   52065      25   52074   52071      24   52077   52071
      24   52077   52074      25   52083   52080      24   52086   52080      24
   52086   52083      25   52092   52089      24   52095   52089      24   52095
   52092      25   52101   52098      24   52104   52098      24   52104   52101
      25   52110   52107      24   52113   52107      24   52113   52110      25
   52119   52116      24   52122   52116      24   52122   52119      25   52128
   52125      24   52131   52125      24   52131   52128      25   52137   52134
      24   52140   52134      24   52140   52137      25   52146   52143      24
   52149   52143      24   52149   52146      25   52155   52152      24   52158
   52152      24   52158   52155      25   52164   52161      24   52167   52161
      24   52167   52164      25   52173   52170      24   52176   52170      24
   52176   52173      25   52182   52179      24   52185   52179      24   52185
   52182      25   52191   52188      24   52194   52188      24   52194   52191
      25   52200   52197      24   52203   52197      24   52203   52200      25
   52209   52206      24   52212   52206      24   52212   52209      25   52218
   52215      24   52221   52215      24   52221   52218      25   52227   52224
      24   52230   52224      24   52230   52227      25   52236   52233      24
   52239   52233      24   52239   52236      25   52245   52242      24   52248
   52242      24   52248   52245      25   52254   52251      24   52257   52251
      24   52257   52254      25   52263   52260      24   52266   52260      24
   52266   52263      25   52272   52269      24   52275   52269      24   52275
   52272      25   52281   52278      24   52284   52278      24   52284   52281
      25   52290   52287      24   52293   52287      24   52293   52290      25
   52299   52296      24   52302   52296      24   52302   52299      25   52308
   52305      24   52311   52305      24   52311   52308      25   52317   52314
      24   52320   52314      24   52320   52317      25   52326   52323      24
   52329   52323      24   52329   52326      25   52335   52332      24   52338
   52332      24   52338   52335      25   52344   52341      24   52347   52341
      24   52347   52344      25   52353   52350      24   52356   52350      24
   52356   52353      25   52362   52359      24   52365   52359      24   52365
   52362      25   52371   52368      24   52374   52368      24   52374   52371
      25   52380   52377      24   52383   52377      24   52383   52380      25
   52389   52386      24   52392   52386      24   52392   52389      25   52398
   52395      24   52401   52395      24   52401   52398      25   52407   52404
      24   52410   52404      24   52410   52407      25   52416   52413      24
   52419   52413      24   52419   52416      25   52425   52422      24   52428
   52422      24   52428   52425      25   52434   52431      24   52437   52431
      24   52437   52434      25   52443   52440      24   52446   52440      24
   52446   52443      25   52452   52449      24   52455   52449      24   52455
   52452      25   52461   52458      24   52464   52458      24   52464   52461
      25   52470   52467      24   52473   52467      24   52473   52470      25
   52479   52476      24   52482   52476      24   52482   52479      25   52488
   52485      24   52491   52485      24   52491   52488      25   52497   52494
      24   52500   52494      24   52500   52497      25   52506   52503      24
   52509   52503      24   52509   52506      25   52515   52512      24   52518
   52512      24   52518   52515      25   52524   52521      24   52527   52521
      24   52527   52524      25   52533   52530      24   52536   52530      24
   52536   52533      25   52542   52539      24   52545   52539      24   52545
   52542      25   52551   52548      24   52554   52548      24   52554   52551
      25   52560   52557      24   52563   52557      24   52563   52560      25
   52569   52566      24   52572   52566      24   52572   52569      25   52578
   52575      24   52581   52575      24   52581   52578      25   52587   52584
      24   52590   52584      24   52590   52587      25   52596   52593      24
   52599   52593      24   52599   52596      25   52605   52602      24   52608
   52602      24   52608   52605      25   52614   52611      24   52617   52611
      24   52617   52614      25   52623   52620      24   52626   52620      24
   52626   52623      25   52632   52629      24   52635   52629      24   52635
   52632      25   52641   52638      24   52644   52638      24   52644   52641
      25   52650   52647      24   52653   52647      24   52653   52650      25
   52659   52656      24   52662   52656      24   52662   52659      25   52668
   52665      24   52671   52665      24   52671   52668      25   52677   52674
      24   52680   52674      24   52680   52677      25   52686   52683      24
   52689   52683      24   52689   52686      25   52695   52692      24   52698
   52692      24   52698   52695      25   52704   52701      24   52707   52701
      24   52707   52704      25   52713   52710      24   52716   52710      24
   52716   52713      25   52722   52719      24   52725   52719      24   52725
   52722      25   52731   52728      24   52734   52728      24   52734   52731
      25   52740   52737      24   52743   52737      24   52743   52740      25
   52749   52746      24   52752   52746      24   52752   52749      25   52758
   52755      24   52761   52755      24   52761   52758      25   52767   52764
      24   52770   52764      24   52770   52767      25   52776   52773      24
   52779   52773      24   52779   52776      25   52785   52782      24   52788
   52782      24   52788   52785      25   52794   52791      24   52797   52791
      24   52797   52794      25   52803   52800      24   52806   52800      24
   52806   52803      25   52812   52809      24   52815   52809      24   52815
   52812      25   52821   52818      24   52824   52818      24   52824   52821
      25   52830   52827      24   52833   52827      24   52833   52830      25
   52839   52836      24   52842   52836      24   52842   52839      25   52848
   52845      24   52851   52845      24   52851   52848      25   52857   52854
      24   52860   52854      24   52860   52857      25   52866   52863      24
   52869   52863      24   52869   52866      25   52875   52872      24   52878
   52872      24   52878   52875      25   52884   52881      24   52887   52881
      24   52887   52884      25   52893   52890      24   52896   52890      24
   52896   52893      25   52902   52899      24   52905   52899      24   52905
   52902      25   52911   52908      24   52914   52908      24   52914   52911
      25   52920   52917      24   52923   52917      24   52923   52920      25
   52929   52926      24   52932   52926      24   52932   52929      25   52938
   52935      24   52941   52935      24   52941   52938      25   52947   52944
      24   52950   52944      24   52950   52947      25   52956   52953      24
   52959   52953      24   52959   52956      25   52965   52962      24   52968
   52962      24   52968   52965      25   52974   52971      24   52977   52971
      24   52977   52974      25   52983   52980      24   52986   52980      24
   52986   52983      25   52992   52989      24   52995   52989      24   52995
   52992      25   53001   52998      24   53004   52998      24   53004   53001
      25   53010   53007      24   53013   53007      24   53013   53010      25
   53019   53016      24   53022   53016      24   53022   53019      25   53028
   53025      24   53031   53025      24   53031   53028      25   53037   53034
      24   53040   53034      24   53040   53037      25   53046   53043      24
   53049   53043      24   53049   53046      25   53055   53052      24   53058
   53052      24   53058   53055      25   53064   53061      24   53067   53061
      24   53067   53064      25   53073   53070      24   53076   53070      24
   53076   53073      25   53082   53079      24   53085   53079      24   53085
   53082      25   53091   53088      24   53094   53088      24   53094   53091
      25   53100   53097      24   53103   53097      24   53103   53100      25
   53109   53106      24   53112   53106      24   53112   53109      25   53118
   53115      24   53121   53115      24   53121   53118      25   53127   53124
      24   53130   53124      24   53130   53127      25   53136   53133      24
   53139   53133      24   53139   53136      25   53145   53142      24   53148
   53142      24   53148   53145      25   53154   53151      24   53157   53151
      24   53157   53154      25   53163   53160      24   53166   53160      24
   53166   53163      25   53172   53169      24   53175   53169      24   53175
   53172      25   53181   53178      24   53184   53178      24   53184   53181
      25   53190   53187      24   53193   53187      24   53193   53190      25
   53199   53196      24   53202   53196      24   53202   53199      25   53208
   53205      24   53211   53205      24   53211   53208      25   53217   53214
      24   53220   53214      24   53220   53217      25   53226   53223      24
   53229   53223      24   53229   53226      25   53235   53232      24   53238
   53232      24   53238   53235      25   53244   53241      24   53247   53241
      24   53247   53244      25   53253   53250      24   53256   53250      24
   53256   53253      25   53262   53259      24   53265   53259      24   53265
   53262      25   53271   53268      24   53274   53268      24   53274   53271
      25   53280   53277      24   53283   53277      24   53283   53280      25
   53289   53286      24   53292   53286      24   53292   53289      25   53298
   53295      24   53301   53295      24   53301   53298      25   53307   53304
      24   53310   53304      24   53310   53307      25   53316   53313      24
   53319   53313      24   53319   53316      25   53325   53322      24   53328
   53322      24   53328   53325      25   53334   53331      24   53337   53331
      24   53337   53334      25   53343   53340      24   53346   53340      24
   53346   53343      25   53352   53349      24   53355   53349      24   53355
   53352      25   53361   53358      24   53364   53358      24   53364   53361
      25   53370   53367      24   53373   53367      24   53373   53370      25
   53379   53376      24   53382   53376      24   53382   53379      25   53388
   53385      24   53391   53385      24   53391   53388      25   53397   53394
      24   53400   53394      24   53400   53397      25   53406   53403      24
   53409   53403      24   53409   53406      25   53415   53412      24   53418
   53412      24   53418   53415      25   53424   53421      24   53427   53421
      24   53427   53424      25   53433   53430      24   53436   53430      24
   53436   53433      25   53442   53439      24   53445   53439      24   53445
   53442      25   53451   53448      24   53454   53448      24   53454   53451
      25   53460   53457      24   53463   53457      24   53463   53460      25
   53469   53466      24   53472   53466      24   53472   53469      25   53478
   53475      24   53481   53475      24   53481   53478      25   53487   53484
      24   53490   53484      24   53490   53487      25   53496   53493      24
   53499   53493      24   53499   53496      25   53505   53502      24   53508
   53502      24   53508   53505      25   53514   53511      24   53517   53511
      24   53517   53514      25   53523   53520      24   53526   53520      24
   53526   53523      25   53532   53529      24   53535   53529      24   53535
   53532      25   53541   53538      24   53544   53538      24   53544   53541
      25   53550   53547      24   53553   53547      24   53553   53550      25
   53559   53556      24   53562   53556      24   53562   53559      25   53568
   53565      24   53571   53565      24   53571   53568      25   53577   53574
      24   53580   53574      24   53580   53577      25   53586   53583      24
   53589   53583      24   53589   53586      25   53595   53592      24   53598
   53592      24   53598   53595      25   53604   53601      24   53607   53601
      24   53607   53604      25   53613   53610      24   53616   53610      24
   53616   53613      25   53622   53619      24   53625   53619      24   53625
   53622      25   53631   53628      24   53634   53628      24   53634   53631
      25   53640   53637      24   53643   53637      24   53643   53640      25
   53649   53646      24   53652   53646      24   53652   53649      25   53658
   53655      24   53661   53655      24   53661   53658      25   53667   53664
      24   53670   53664      24   53670   53667      25   53676   53673      24
   53679   53673      24   53679   53676      25   53685   53682      24   53688
   53682      24   53688   53685      25   53694   53691      24   53697   53691
      24   53697   53694      25   53703   53700      24   53706   53700      24
   53706   53703      25   53712   53709      24   53715   53709      24   53715
   53712      25   53721   53718      24   53724   53718      24   53724   53721
      25   53730   53727      24   53733   53727      24   53733   53730      25
   53739   53736      24   53742   53736      24   53742   53739      25   53748
   53745      24   53751   53745      24   53751   53748      25   53757   53754
      24   53760   53754      24   53760   53757      25   53766   53763      24
   53769   53763      24   53769   53766      25   53775   53772      24   53778
   53772      24   53778   53775      25   53784   53781      24   53787   53781
      24   53787   53784      25   53793   53790      24   53796   53790      24
   53796   53793      25   53802   53799      24   53805   53799      24   53805
   53802      25   53811   53808      24   53814   53808      24   53814   53811
      25   53820   53817      24   53823   53817      24   53823   53820      25
   53829   53826      24   53832   53826      24   53832   53829      25   53838
   53835      24   53841   53835      24   53841   53838      25   53847   53844
      24   53850   53844      24   53850   53847      25   53856   53853      24
   53859   53853      24   53859   53856      25   53865   53862      24   53868
   53862      24   53868   53865      25   53874   53871      24   53877   53871
      24   53877   53874      25   53883   53880      24   53886   53880      24
   53886   53883      25   53892   53889      24   53895   53889      24   53895
   53892      25   53901   53898      24   53904   53898      24   53904   53901
      25   53910   53907      24   53913   53907      24   53913   53910      25
   53919   53916      24   53922   53916      24   53922   53919      25   53928
   53925      24   53931   53925      24   53931   53928      25   53937   53934
      24   53940   53934      24   53940   53937      25   53946   53943      24
   53949   53943      24   53949   53946      25   53955   53952      24   53958
   53952      24   53958   53955      25   53964   53961      24   53967   53961
      24   53967   53964      25   53973   53970      24   53976   53970      24
   53976   53973      25   53982   53979      24   53985   53979      24   53985
   53982      25   53991   53988      24   53994   53988      24   53994   53991
      25   54000   53997      24   54003   53997      24   54003   54000      25
   54009   54006      24   54012   54006      24   54012   54009      25   54018
   54015      24   54021   54015      24   54021   54018      25   54027   54024
      24   54030   54024      24   54030   54027      25   54036   54033      24
   54039   54033      24   54039   54036      25   54045   54042      24   54048
   54042      24   54048   54045      25   54054   54051      24   54057   54051
      24   54057   54054      25   54063   54060      24   54066   54060      24
   54066   54063      25   54072   54069      24   54075   54069      24   54075
   54072      25   54081   54078      24   54084   54078      24   54084   54081
      25   54090   54087      24   54093   54087      24   54093   54090      25
   54099   54096      24   54102   54096      24   54102   54099      25   54108
   54105      24   54111   54105      24   54111   54108      25   54117   54114
      24   54120   54114      24   54120   54117      25   54126   54123      24
   54129   54123      24   54129   54126      25   54135   54132      24   54138
   54132      24   54138   54135      25   54144   54141      24   54147   54141
      24   54147   54144      25   54153   54150      24   54156   54150      24
   54156   54153      25   54162   54159      24   54165   54159      24   54165
   54162      25   54171   54168      24   54174   54168      24   54174   54171
      25   54180   54177      24   54183   54177      24   54183   54180      25
   54189   54186      24   54192   54186      24   54192   54189      25   54198
   54195      24   54201   54195      24   54201   54198      25   54207   54204
      24   54210   54204      24   54210   54207      25   54216   54213      24
   54219   54213      24   54219   54216      25   54225   54222      24   54228
   54222      24   54228   54225      25   54234   54231      24   54237   54231
      24   54237   54234      25   54243   54240      24   54246   54240      24
   54246   54243      25   54252   54249      24   54255   54249      24   54255
   54252      25   54261   54258      24   54264   54258      24   54264   54261
      25   54270   54267      24   54273   54267      24   54273   54270      25
   54279   54276      24   54282   54276      24   54282   54279      25   54288
   54285      24   54291   54285      24   54291   54288      25   54297   54294
      24   54300   54294      24   54300   54297      25   54306   54303      24
   54309   54303      24   54309   54306      25   54315   54312      24   54318
   54312      24   54318   54315      25   54324   54321      24   54327   54321
      24   54327   54324      25   54333   54330      24   54336   54330      24
   54336   54333      25   54342   54339      24   54345   54339      24   54345
   54342      25   54351   54348      24   54354   54348      24   54354   54351
      25   54360   54357      24   54363   54357      24   54363   54360      25
   54369   54366      24   54372   54366      24   54372   54369      25   54378
   54375      24   54381   54375      24   54381   54378      25   54387   54384
      24   54390   54384      24   54390   54387      25   54396   54393      24
   54399   54393      24   54399   54396      25   54405   54402      24   54408
   54402      24   54408   54405      25   54414   54411      24   54417   54411
      24   54417   54414      25   54423   54420      24   54426   54420      24
   54426   54423      25   54432   54429      24   54435   54429      24   54435
   54432      25   54441   54438      24   54444   54438      24   54444   54441
      25   54450   54447      24   54453   54447      24   54453   54450      25
   54459   54456      24   54462   54456      24   54462   54459      25   54468
   54465      24   54471   54465      24   54471   54468      25   54477   54474
      24   54480   54474      24   54480   54477      25   54486   54483      24
   54489   54483      24   54489   54486      25   54495   54492      24   54498
   54492      24   54498   54495      25   54504   54501      24   54507   54501
      24   54507   54504      25   54513   54510      24   54516   54510      24
   54516   54513      25   54522   54519      24   54525   54519      24   54525
   54522      25   54531   54528      24   54534   54528      24   54534   54531
      25   54540   54537      24   54543   54537      24   54543   54540      25
   54549   54546      24   54552   54546      24   54552   54549      25   54558
   54555      24   54561   54555      24   54561   54558      25   54567   54564
      24   54570   54564      24   54570   54567      25   54576   54573      24
   54579   54573      24   54579   54576      25   54585   54582      24   54588
   54582      24   54588   54585      25   54594   54591      24   54597   54591
      24   54597   54594      25   54603   54600      24   54606   54600      24
   54606   54603      25   54612   54609      24   54615   54609      24   54615
   54612      25   54621   54618      24   54624   54618      24   54624   54621
      25   54630   54627      24   54633   54627      24   54633   54630      25
   54639   54636      24   54642   54636      24   54642   54639      25   54648
   54645      24   54651   54645      24   54651   54648      25   54657   54654
      24   54660   54654      24   54660   54657      25   54666   54663      24
   54669   54663      24   54669   54666      25   54675   54672      24   54678
   54672      24   54678   54675      25   54684   54681      24   54687   54681
      24   54687   54684      25   54693   54690      24   54696   54690      24
   54696   54693      25   54702   54699      24   54705   54699      24   54705
   54702      25   54711   54708      24   54714   54708      24   54714   54711
      25   54720   54717      24   54723   54717      24   54723   54720      25
   54729   54726      24   54732   54726      24   54732   54729      25   54738
   54735      24   54741   54735      24   54741   54738      25   54747   54744
      24   54750   54744      24   54750   54747      25   54756   54753      24
   54759   54753      24   54759   54756      25   54765   54762      24   54768
   54762      24   54768   54765      25   54774   54771      24   54777   54771
      24   54777   54774      25   54783   54780      24   54786   54780      24
   54786   54783      25   54792   54789      24   54795   54789      24   54795
   54792      25   54801   54798      24   54804   54798      24   54804   54801
      25   54810   54807      24   54813   54807      24   54813   54810      25
   54819   54816      24   54822   54816      24   54822   54819      25   54828
   54825      24   54831   54825      24   54831   54828      25   54837   54834
      24   54840   54834      24   54840   54837      25   54846   54843      24
   54849   54843      24   54849   54846      25   54855   54852      24   54858
   54852      24   54858   54855      25   54864   54861      24   54867   54861
      24   54867   54864      25   54873   54870      24   54876   54870      24
   54876   54873      25   54882   54879      24   54885   54879      24   54885
   54882      25   54891   54888      24   54894   54888      24   54894   54891
      25   54900   54897      24   54903   54897      24   54903   54900      25
   54909   54906      24   54912   54906      24   54912   54909      25   54918
   54915      24   54921   54915      24   54921   54918      25   54927   54924
      24   54930   54924      24   54930   54927      25   54936   54933      24
   54939   54933      24   54939   54936      25   54945   54942      24   54948
   54942      24   54948   54945      25   54954   54951      24   54957   54951
      24   54957   54954      25   54963   54960      24   54966   54960      24
   54966   54963      25   54972   54969      24   54975   54969      24   54975
   54972      25   54981   54978      24   54984   54978      24   54984   54981
      25   54990   54987      24   54993   54987      24   54993   54990      25
   54999   54996      24   55002   54996      24   55002   54999      25   55008
   55005      24   55011   55005      24   55011   55008      25   55017   55014
      24   55020   55014      24   55020   55017      25   55026   55023      24
   55029   55023      24   55029   55026      25   55035   55032      24   55038
   55032      24   55038   55035      25   55044   55041      24   55047   55041
      24   55047   55044      25   55053   55050      24   55056   55050      24
   55056   55053      25   55062   55059      24   55065   55059      24   55065
   55062      25   55071   55068      24   55074   55068      24   55074   55071
      25   55080   55077      24   55083   55077      24   55083   55080      25
   55089   55086      24   55092   55086      24   55092   55089      25   55098
   55095      24   55101   55095      24   55101   55098      25   55107   55104
      24   55110   55104      24   55110   55107      25   55116   55113      24
   55119   55113      24   55119   55116      25   55125   55122      24   55128
   55122      24   55128   55125      25   55134   55131      24   55137   55131
      24   55137   55134      25   55143   55140      24   55146   55140      24
   55146   55143      25   55152   55149      24   55155   55149      24   55155
   55152      25   55161   55158      24   55164   55158      24   55164   55161
      25   55170   55167      24   55173   55167      24   55173   55170      25
   55179   55176      24   55182   55176      24   55182   55179      25   55188
   55185      24   55191   55185      24   55191   55188      25   55197   55194
      24   55200   55194      24   55200   55197      25   55206   55203      24
   55209   55203      24   55209   55206      25   55215   55212      24   55218
   55212      24   55218   55215      25   55224   55221      24   55227   55221
      24   55227   55224      25   55233   55230      24   55236   55230      24
   55236   55233      25   55242   55239      24   55245   55239      24   55245
   55242      25   55251   55248      24   55254   55248      24   55254   55251
      25   55260   55257      24   55263   55257      24   55263   55260      25
   55269   55266      24   55272   55266      24   55272   55269      25   55278
   55275      24   55281   55275      24   55281   55278      25   55287   55284
      24   55290   55284      24   55290   55287      25   55296   55293      24
   55299   55293      24   55299   55296      25   55305   55302      24   55308
   55302      24   55308   55305      25   55314   55311      24   55317   55311
      24   55317   55314      25   55323   55320      24   55326   55320      24
   55326   55323      25   55332   55329      24   55335   55329      24   55335
   55332      25   55341   55338      24   55344   55338      24   55344   55341
      25   55350   55347      24   55353   55347      24   55353   55350      25
   55359   55356      24   55362   55356      24   55362   55359      25   55368
   55365      24   55371   55365      24   55371   55368      25   55377   55374
      24   55380   55374      24   55380   55377      25   55386   55383      24
   55389   55383      24   55389   55386      25   55395   55392      24   55398
   55392      24   55398   55395      25   55404   55401      24   55407   55401
      24   55407   55404      25   55413   55410      24   55416   55410      24
   55416   55413      25   55422   55419      24   55425   55419      24   55425
   55422      25   55431   55428      24   55434   55428      24   55434   55431
      25   55440   55437      24   55443   55437      24   55443   55440      25
   55449   55446      24   55452   55446      24   55452   55449      25   55458
   55455      24   55461   55455      24   55461   55458      25   55467   55464
      24   55470   55464      24   55470   55467      25   55476   55473      24
   55479   55473      24   55479   55476      25   55485   55482      24   55488
   55482      24   55488   55485      25   55494   55491      24   55497   55491
      24   55497   55494      25   55503   55500      24   55506   55500      24
   55506   55503      25   55512   55509      24   55515   55509      24   55515
   55512      25   55521   55518      24   55524   55518      24   55524   55521
      25   55530   55527      24   55533   55527      24   55533   55530      25
   55539   55536      24   55542   55536      24   55542   55539      25   55548
   55545      24   55551   55545      24   55551   55548      25   55557   55554
      24   55560   55554      24   55560   55557      25   55566   55563      24
   55569   55563      24   55569   55566      25   55575   55572      24   55578
   55572      24   55578   55575      25   55584   55581      24   55587   55581
      24   55587   55584      25   55593   55590      24   55596   55590      24
   55596   55593      25   55602   55599      24   55605   55599      24   55605
   55602      25   55611   55608      24   55614   55608      24   55614   55611
      25   55620   55617      24   55623   55617      24   55623   55620      25
   55629   55626      24   55632   55626      24   55632   55629      25   55638
   55635      24   55641   55635      24   55641   55638      25   55647   55644
      24   55650   55644      24   55650   55647      25   55656   55653      24
   55659   55653      24   55659   55656      25   55665   55662      24   55668
   55662      24   55668   55665      25   55674   55671      24   55677   55671
      24   55677   55674      25   55683   55680      24   55686   55680      24
   55686   55683      25   55692   55689      24   55695   55689      24   55695
   55692      25   55701   55698      24   55704   55698      24   55704   55701
      25   55710   55707      24   55713   55707      24   55713   55710      25
   55719   55716      24   55722   55716      24   55722   55719      25   55728
   55725      24   55731   55725      24   55731   55728      25   55737   55734
      24   55740   55734      24   55740   55737      25   55746   55743      24
   55749   55743      24   55749   55746      25   55755   55752      24   55758
   55752      24   55758   55755      25   55764   55761      24   55767   55761
      24   55767   55764      25   55773   55770      24   55776   55770      24
   55776   55773      25   55782   55779      24   55785   55779      24   55785
   55782      25   55791   55788      24   55794   55788      24   55794   55791
      25   55800   55797      24   55803   55797      24   55803   55800      25
   55809   55806      24   55812   55806      24   55812   55809      25   55818
   55815      24   55821   55815      24   55821   55818      25   55827   55824
      24   55830   55824      24   55830   55827      25   55836   55833      24
   55839   55833      24   55839   55836      25   55845   55842      24   55848
   55842      24   55848   55845      25   55854   55851      24   55857   55851
      24   55857   55854      25   55863   55860      24   55866   55860      24
   55866   55863      25   55872   55869      24   55875   55869      24   55875
   55872      25   55881   55878      24   55884   55878      24   55884   55881
      25   55890   55887      24   55893   55887      24   55893   55890      25
   55899   55896      24   55902   55896      24   55902   55899      25   55908
   55905      24   55911   55905      24   55911   55908      25   55917   55914
      24   55920   55914      24   55920   55917      25   55926   55923      24
   55929   55923      24   55929   55926      25   55935   55932      24   55938
   55932      24   55938   55935      25   55944   55941      24   55947   55941
      24   55947   55944      25   55953   55950      24   55956   55950      24
   55956   55953      25   55962   55959      24   55965   55959      24   55965
   55962      25   55971   55968      24   55974   55968      24   55974   55971
      25   55980   55977      24   55983   55977      24   55983   55980      25
   55989   55986      24   55992   55986      24   55992   55989      25   55998
   55995      24   56001   55995      24   56001   55998      25   56007   56004
      24   56010   56004      24   56010   56007      25   56016   56013      24
   56019   56013      24   56019   56016      25   56025   56022      24   56028
   56022      24   56028   56025      25   56034   56031      24   56037   56031
      24   56037   56034      25   56043   56040      24   56046   56040      24
   56046   56043      25   56052   56049      24   56055   56049      24   56055
   56052      25   56061   56058      24   56064   56058      24   56064   56061
      25   56070   56067      24   56073   56067      24   56073   56070      25
   56079   56076      24   56082   56076      24   56082   56079      25   56088
   56085      24   56091   56085      24   56091   56088      25   56097   56094
      24   56100   56094      24   56100   56097      25   56106   56103      24
   56109   56103      24   56109   56106      25   56115   56112      24   56118
   56112      24   56118   56115      25   56124   56121      24   56127   56121
      24   56127   56124      25   56133   56130      24   56136   56130      24
   56136   56133      25   56142   56139      24   56145   56139      24   56145
   56142      25   56151   56148      24   56154   56148      24   56154   56151
      25   56160   56157      24   56163   56157      24   56163   56160      25
   56169   56166      24   56172   56166      24   56172   56169      25   56178
   56175      24   56181   56175      24   56181   56178      25   56187   56184
      24   56190   56184      24   56190   56187      25   56196   56193      24
   56199   56193      24   56199   56196      25   56205   56202      24   56208
   56202      24   56208   56205      25   56214   56211      24   56217   56211
      24   56217   56214      25   56223   56220      24   56226   56220      24
   56226   56223      25   56232   56229      24   56235   56229      24   56235
   56232      25   56241   56238      24   56244   56238      24   56244   56241
      25   56250   56247      24   56253   56247      24   56253   56250      25
   56259   56256      24   56262   56256      24   56262   56259      25   56268
   56265      24   56271   56265      24   56271   56268      25   56277   56274
      24   56280   56274      24   56280   56277      25   56286   56283      24
   56289   56283      24   56289   56286      25   56295   56292      24   56298
   56292      24   56298   56295      25   56304   56301      24   56307   56301
      24   56307   56304      25   56313   56310      24   56316   56310      24
   56316   56313      25   56322   56319      24   56325   56319      24   56325
   56322      25   56331   56328      24   56334   56328      24   56334   56331
      25   56340   56337      24   56343   56337      24   56343   56340      25
   56349   56346      24   56352   56346      24   56352   56349      25   56358
   56355      24   56361   56355      24   56361   56358      25   56367   56364
      24   56370   56364      24   56370   56367      25   56376   56373      24
   56379   56373      24   56379   56376      25   56385   56382      24   56388
   56382      24   56388   56385      25   56394   56391      24   56397   56391
      24   56397   56394      25   56403   56400      24   56406   56400      24
   56406   56403      25   56412   56409      24   56415   56409      24   56415
   56412      25   56421   56418      24   56424   56418      24   56424   56421
      25   56430   56427      24   56433   56427      24   56433   56430      25
   56439   56436      24   56442   56436      24   56442   56439      25   56448
   56445      24   56451   56445      24   56451   56448      25   56457   56454
      24   56460   56454      24   56460   56457      25   56466   56463      24
   56469   56463      24   56469   56466      25   56475   56472      24   56478
   56472      24   56478   56475      25   56484   56481      24   56487   56481
      24   56487   56484      25   56493   56490      24   56496   56490      24
   56496   56493      25   56502   56499      24   56505   56499      24   56505
   56502      25   56511   56508      24   56514   56508      24   56514   56511
      25   56520   56517      24   56523   56517      24   56523   56520      25
   56529   56526      24   56532   56526      24   56532   56529      25   56538
   56535      24   56541   56535      24   56541   56538      25   56547   56544
      24   56550   56544      24   56550   56547      25   56556   56553      24
   56559   56553      24   56559   56556      25   56565   56562      24   56568
   56562      24   56568   56565      25   56574   56571      24   56577   56571
      24   56577   56574      25   56583   56580      24   56586   56580      24
   56586   56583      25   56592   56589      24   56595   56589      24   56595
   56592      25   56601   56598      24   56604   56598      24   56604   56601
      25   56610   56607      24   56613   56607      24   56613   56610      25
   56619   56616      24   56622   56616      24   56622   56619      25   56628
   56625      24   56631   56625      24   56631   56628      25   56637   56634
      24   56640   56634      24   56640   56637      25   56646   56643      24
   56649   56643      24   56649   56646      25   56655   56652      24   56658
   56652      24   56658   56655      25   56664   56661      24   56667   56661
      24   56667   56664      25   56673   56670      24   56676   56670      24
   56676   56673      25   56682   56679      24   56685   56679      24   56685
   56682      25   56691   56688      24   56694   56688      24   56694   56691
      25   56700   56697      24   56703   56697      24   56703   56700      25
   56709   56706      24   56712   56706      24   56712   56709      25   56718
   56715      24   56721   56715      24   56721   56718      25   56727   56724
      24   56730   56724      24   56730   56727      25   56736   56733      24
   56739   56733      24   56739   56736      25   56745   56742      24   56748
   56742      24   56748   56745      25   56754   56751      24   56757   56751
      24   56757   56754      25   56763   56760      24   56766   56760      24
   56766   56763      25   56772   56769      24   56775   56769      24   56775
   56772      25   56781   56778      24   56784   56778      24   56784   56781
      25   56790   56787      24   56793   56787      24   56793   56790      25
   56799   56796      24   56802   56796      24   56802   56799      25   56808
   56805      24   56811   56805      24   56811   56808      25   56817   56814
      24   56820   56814      24   56820   56817      25   56826   56823      24
   56829   56823      24   56829   56826      25   56835   56832      24   56838
   56832      24   56838   56835      25   56844   56841      24   56847   56841
      24   56847   56844      25   56853   56850      24   56856   56850      24
   56856   56853      25   56862   56859      24   56865   56859      24   56865
   56862      25   56871   56868      24   56874   56868      24   56874   56871
      25   56880   56877      24   56883   56877      24   56883   56880      25
   56889   56886      24   56892   56886      24   56892   56889      25   56898
   56895      24   56901   56895      24   56901   56898      25   56907   56904
      24   56910   56904      24   56910   56907      25   56916   56913      24
   56919   56913      24   56919   56916      25   56925   56922      24   56928
   56922      24   56928   56925      25   56934   56931      24   56937   56931
      24   56937   56934      25   56943   56940      24   56946   56940      24
   56946   56943      25   56952   56949      24   56955   56949      24   56955
   56952      25   56961   56958      24   56964   56958      24   56964   56961
      25   56970   56967      24   56973   56967      24   56973   56970      25
   56979   56976      24   56982   56976      24   56982   56979      25   56988
   56985      24   56991   56985      24   56991   56988      25   56997   56994
      24   57000   56994      24   57000   56997      25   57006   57003      24
   57009   57003      24   57009   57006      25   57015   57012      24   57018
   57012      24   57018   57015      25   57024   57021      24   57027   57021
      24   57027   57024      25   57033   57030      24   57036   57030      24
   57036   57033      25   57042   57039      24   57045   57039      24   57045
   57042      25   57051   57048      24   57054   57048      24   57054   57051
      25   57060   57057      24   57063   57057      24   57063   57060      25
   57069   57066      24   57072   57066      24   57072   57069      25   57078
   57075      24   57081   57075      24   57081   57078      25   57087   57084
      24   57090   57084      24   57090   57087      25   57096   57093      24
   57099   57093      24   57099   57096      25   57105   57102      24   57108
   57102      24   57108   57105      25   57114   57111      24   57117   57111
      24   57117   57114      25   57123   57120      24   57126   57120      24
   57126   57123      25   57132   57129      24   57135   57129      24   57135
   57132      25   57141   57138      24   57144   57138      24   57144   57141
      25   57150   57147      24   57153   57147      24   57153   57150      25
   57159   57156      24   57162   57156      24   57162   57159      25   57168
   57165      24   57171   57165      24   57171   57168      25   57177   57174
      24   57180   57174      24   57180   57177      25   57186   57183      24
   57189   57183      24   57189   57186      25   57195   57192      24   57198
   57192      24   57198   57195      25   57204   57201      24   57207   57201
      24   57207   57204      25   57213   57210      24   57216   57210      24
   57216   57213      25   57222   57219      24   57225   57219      24   57225
   57222      25   57231   57228      24   57234   57228      24   57234   57231
      25   57240   57237      24   57243   57237      24   57243   57240      25
   57249   57246      24   57252   57246      24   57252   57249      25   57258
   57255      24   57261   57255      24   57261   57258      25   57267   57264
      24   57270   57264      24   57270   57267      25   57276   57273      24
   57279   57273      24   57279   57276      25   57285   57282      24   57288
   57282      24   57288   57285      25   57294   57291      24   57297   57291
      24   57297   57294      25   57303   57300      24   57306   57300      24
   57306   57303      25   57312   57309      24   57315   57309      24   57315
   57312      25   57321   57318      24   57324   57318      24   57324   57321
      25   57330   57327      24   57333   57327      24   57333   57330      25
   57339   57336      24   57342   57336      24   57342   57339      25   57348
   57345      24   57351   57345      24   57351   57348      25   57357   57354
      24   57360   57354      24   57360   57357      25   57366   57363      24
   57369   57363      24   57369   57366      25   57375   57372      24   57378
   57372      24   57378   57375      25   57384   57381      24   57387   57381
      24   57387   57384      25   57393   57390      24   57396   57390      24
   57396   57393      25   57402   57399      24   57405   57399      24   57405
   57402      25   57411   57408      24   57414   57408      24   57414   57411
      25   57420   57417      24   57423   57417      24   57423   57420      25
   57429   57426      24   57432   57426      24   57432   57429      25   57438
   57435      24   57441   57435      24   57441   57438      25   57447   57444
      24   57450   57444      24   57450   57447      25   57456   57453      24
   57459   57453      24   57459   57456      25   57465   57462      24   57468
   57462      24   57468   57465      25   57474   57471      24   57477   57471
      24   57477   57474      25   57483   57480      24   57486   57480      24
   57486   57483      25   57492   57489      24   57495   57489      24   57495
   57492      25   57501   57498      24   57504   57498      24   57504   57501
      25   57510   57507      24   57513   57507      24   57513   57510      25
   57519   57516      24   57522   57516      24   57522   57519      25   57528
   57525      24   57531   57525      24   57531   57528      25   57537   57534
      24   57540   57534      24   57540   57537      25   57546   57543      24
   57549   57543      24   57549   57546      25   57555   57552      24   57558
   57552      24   57558   57555      25   57564   57561      24   57567   57561
      24   57567   57564      25   57573   57570      24   57576   57570      24
   57576   57573      25   57582   57579      24   57585   57579      24   57585
   57582      25   57591   57588      24   57594   57588      24   57594   57591
      25   57600   57597      24   57603   57597      24   57603   57600      25
   57609   57606      24   57612   57606      24   57612   57609      25   57618
   57615      24   57621   57615      24   57621   57618      25   57627   57624
      24   57630   57624      24   57630   57627      25   57636   57633      24
   57639   57633      24   57639   57636      25   57645   57642      24   57648
   57642      24   57648   57645      25   57654   57651      24   57657   57651
      24   57657   57654      25   57663   57660      24   57666   57660      24
   57666   57663      25   57672   57669      24   57675   57669      24   57675
   57672      25   57681   57678      24   57684   57678      24   57684   57681
      25   57690   57687      24   57693   57687      24   57693   57690      25
   57699   57696      24   57702   57696      24   57702   57699      25   57708
   57705      24   57711   57705      24   57711   57708      25   57717   57714
      24   57720   57714      24   57720   57717      25   57726   57723      24
   57729   57723      24   57729   57726      25   57735   57732      24   57738
   57732      24   57738   57735      25   57744   57741      24   57747   57741
      24   57747   57744      25   57753   57750      24   57756   57750      24
   57756   57753      25   57762   57759      24   57765   57759      24   57765
   57762      25   57771   57768      24   57774   57768      24   57774   57771
      25   57780   57777      24   57783   57777      24   57783   57780      25
   57789   57786      24   57792   57786      24   57792   57789      25   57798
   57795      24   57801   57795      24   57801   57798      25   57807   57804
      24   57810   57804      24   57810   57807      25   57816   57813      24
   57819   57813      24   57819   57816      25   57825   57822      24   57828
   57822      24   57828   57825      25   57834   57831      24   57837   57831
      24   57837   57834      25   57843   57840      24   57846   57840      24
   57846   57843      25   57852   57849      24   57855   57849      24   57855
   57852      25   57861   57858      24   57864   57858      24   57864   57861
      25   57870   57867      24   57873   57867      24   57873   57870      25
   57879   57876      24   57882   57876      24   57882   57879      25   57888
   57885      24   57891   57885      24   57891   57888      25   57897   57894
      24   57900   57894      24   57900   57897      25   57906   57903      24
   57909   57903      24   57909   57906      25   57915   57912      24   57918
   57912      24   57918   57915      25   57924   57921      24   57927   57921
      24   57927   57924      25   57933   57930      24   57936   57930      24
   57936   57933      25   57942   57939      24   57945   57939      24   57945
   57942      25   57951   57948      24   57954   57948      24   57954   57951
      25   57960   57957      24   57963   57957      24   57963   57960      25
   57969   57966      24   57972   57966      24   57972   57969      25   57978
   57975      24   57981   57975      24   57981   57978      25   57987   57984
      24   57990   57984      24   57990   57987      25   57996   57993      24
   57999   57993      24   57999   57996      25   58005   58002      24   58008
   58002      24   58008   58005      25   58014   58011      24   58017   58011
      24   58017   58014      25   58023   58020      24   58026   58020      24
   58026   58023      25   58032   58029      24   58035   58029      24   58035
   58032      25   58041   58038      24   58044   58038      24   58044   58041
      25   58050   58047      24   58053   58047      24   58053   58050      25
   58059   58056      24   58062   58056      24   58062   58059      25   58068
   58065      24   58071   58065      24   58071   58068      25   58077   58074
      24   58080   58074      24   58080   58077      25   58086   58083      24
   58089   58083      24   58089   58086      25   58095   58092      24   58098
   58092      24   58098   58095      25   58104   58101      24   58107   58101
      24   58107   58104      25   58113   58110      24   58116   58110      24
   58116   58113      25   58122   58119      24   58125   58119      24   58125
   58122      25   58131   58128      24   58134   58128      24   58134   58131
      25   58140   58137      24   58143   58137      24   58143   58140      25
   58149   58146      24   58152   58146      24   58152   58149      25   58158
   58155      24   58161   58155      24   58161   58158      25   58167   58164
      24   58170   58164      24   58170   58167      25   58176   58173      24
   58179   58173      24   58179   58176      25   58185   58182      24   58188
   58182      24   58188   58185      25   58194   58191      24   58197   58191
      24   58197   58194      25   58203   58200      24   58206   58200      24
   58206   58203      25   58212   58209      24   58215   58209      24   58215
   58212      25   58221   58218      24   58224   58218      24   58224   58221
      25   58230   58227      24   58233   58227      24   58233   58230      25
   58239   58236      24   58242   58236      24   58242   58239      25   58248
   58245      24   58251   58245      24   58251   58248      25   58257   58254
      24   58260   58254      24   58260   58257      25   58266   58263      24
   58269   58263      24   58269   58266      25   58275   58272      24   58278
   58272      24   58278   58275      25   58284   58281      24   58287   58281
      24   58287   58284      25   58293   58290      24   58296   58290      24
   58296   58293      25   58302   58299      24   58305   58299      24   58305
   58302      25   58311   58308      24   58314   58308      24   58314   58311
      25   58320   58317      24   58323   58317      24   58323   58320      25
   58329   58326      24   58332   58326      24   58332   58329      25   58338
   58335      24   58341   58335      24   58341   58338      25   58347   58344
      24   58350   58344      24   58350   58347      25   58356   58353      24
   58359   58353      24   58359   58356      25   58365   58362      24   58368
   58362      24   58368   58365      25   58374   58371      24   58377   58371
      24   58377   58374      25   58383   58380      24   58386   58380      24
   58386   58383      25   58392   58389      24   58395   58389      24   58395
   58392      25   58401   58398      24   58404   58398      24   58404   58401
      25   58410   58407      24   58413   58407      24   58413   58410      25
   58419   58416      24   58422   58416      24   58422   58419      25   58428
   58425      24   58431   58425      24   58431   58428      25   58437   58434
      24   58440   58434      24   58440   58437      25   58446   58443      24
   58449   58443      24   58449   58446      25   58455   58452      24   58458
   58452      24   58458   58455      25   58464   58461      24   58467   58461
      24   58467   58464      25   58473   58470      24   58476   58470      24
   58476   58473      25   58482   58479      24   58485   58479      24   58485
   58482      25   58491   58488      24   58494   58488      24   58494   58491
      25   58500   58497      24   58503   58497      24   58503   58500      25
   58509   58506      24   58512   58506      24   58512   58509      25   58518
   58515      24   58521   58515      24   58521   58518      25   58527   58524
      24   58530   58524      24   58530   58527      25   58536   58533      24
   58539   58533      24   58539   58536      25   58545   58542      24   58548
   58542      24   58548   58545      25   58554   58551      24   58557   58551
      24   58557   58554      25   58563   58560      24   58566   58560      24
   58566   58563      25   58572   58569      24   58575   58569      24   58575
   58572      25   58581   58578      24   58584   58578      24   58584   58581
      25   58590   58587      24   58593   58587      24   58593   58590      25
   58599   58596      24   58602   58596      24   58602   58599      25   58608
   58605      24   58611   58605      24   58611   58608      25   58617   58614
      24   58620   58614      24   58620   58617      25   58626   58623      24
   58629   58623      24   58629   58626      25   58635   58632      24   58638
   58632      24   58638   58635      25   58644   58641      24   58647   58641
      24   58647   58644      25   58653   58650      24   58656   58650      24
   58656   58653      25   58662   58659      24   58665   58659      24   58665
   58662      25   58671   58668      24   58674   58668      24   58674   58671
      25   58680   58677      24   58683   58677      24   58683   58680      25
   58689   58686      24   58692   58686      24   58692   58689      25   58698
   58695      24   58701   58695      24   58701   58698      25   58707   58704
      24   58710   58704      24   58710   58707      25   58716   58713      24
   58719   58713      24   58719   58716      25   58725   58722      24   58728
   58722      24   58728   58725      25   58734   58731      24   58737   58731
      24   58737   58734      25   58743   58740      24   58746   58740      24
   58746   58743      25   58752   58749      24   58755   58749      24   58755
   58752      25   58761   58758      24   58764   58758      24   58764   58761
      25   58770   58767      24   58773   58767      24   58773   58770      25
   58779   58776      24   58782   58776      24   58782   58779      25   58788
   58785      24   58791   58785      24   58791   58788      25   58797   58794
      24   58800   58794      24   58800   58797      25   58806   58803      24
   58809   58803      24   58809   58806      25   58815   58812      24   58818
   58812      24   58818   58815      25   58824   58821      24   58827   58821
      24   58827   58824      25   58833   58830      24   58836   58830      24
   58836   58833      25   58842   58839      24   58845   58839      24   58845
   58842      25   58851   58848      24   58854   58848      24   58854   58851
      25   58860   58857      24   58863   58857      24   58863   58860      25
   58869   58866      24   58872   58866      24   58872   58869      25   58878
   58875      24   58881   58875      24   58881   58878      25   58887   58884
      24   58890   58884      24   58890   58887      25   58896   58893      24
   58899   58893      24   58899   58896      25   58905   58902      24   58908
   58902      24   58908   58905      25   58914   58911      24   58917   58911
      24   58917   58914      25   58923   58920      24   58926   58920      24
   58926   58923      25   58932   58929      24   58935   58929      24   58935
   58932      25   58941   58938      24   58944   58938      24   58944   58941
      25   58950   58947      24   58953   58947      24   58953   58950      25
   58959   58956      24   58962   58956      24   58962   58959      25   58968
   58965      24   58971   58965      24   58971   58968      25   58977   58974
      24   58980   58974      24   58980   58977      25   58986   58983      24
   58989   58983      24   58989   58986      25   58995   58992      24   58998
   58992      24   58998   58995      25   59004   59001      24   59007   59001
      24   59007   59004      25   59013   59010      24   59016   59010      24
   59016   59013      25   59022   59019      24   59025   59019      24   59025
   59022      25   59031   59028      24   59034   59028      24   59034   59031
      25   59040   59037      24   59043   59037      24   59043   59040      25
   59049   59046      24   59052   59046      24   59052   59049      25   59058
   59055      24   59061   59055      24   59061   59058      25   59067   59064
      24   59070   59064      24   59070   59067      25   59076   59073      24
   59079   59073      24   59079   59076      25   59085   59082      24   59088
   59082      24   59088   59085      25   59094   59091      24   59097   59091
      24   59097   59094      25   59103   59100      24   59106   59100      24
   59106   59103      25   59112   59109      24   59115   59109      24   59115
   59112      25   59121   59118      24   59124   59118      24   59124   59121
      25   59130   59127      24   59133   59127      24   59133   59130      25
   59139   59136      24   59142   59136      24   59142   59139      25   59148
   59145      24   59151   59145      24   59151   59148      25   59157   59154
      24   59160   59154      24   59160   59157      25   59166   59163      24
   59169   59163      24   59169   59166      25   59175   59172      24   59178
   59172      24   59178   59175      25   59184   59181      24   59187   59181
      24   59187   59184      25   59193   59190      24   59196   59190      24
   59196   59193      25   59202   59199      24   59205   59199      24   59205
   59202      25   59211   59208      24   59214   59208      24   59214   59211
      25   59220   59217      24   59223   59217      24   59223   59220      25
   59229   59226      24   59232   59226      24   59232   59229      25   59238
   59235      24   59241   59235      24   59241   59238      25   59247   59244
      24   59250   59244      24   59250   59247      25   59256   59253      24
   59259   59253      24   59259   59256      25   59265   59262      24   59268
   59262      24   59268   59265      25   59274   59271      24   59277   59271
      24   59277   59274      25   59283   59280      24   59286   59280      24
   59286   59283      25   59292   59289      24   59295   59289      24   59295
   59292      25   59301   59298      24   59304   59298      24   59304   59301
      25   59310   59307      24   59313   59307      24   59313   59310      25
   59319   59316      24   59322   59316      24   59322   59319      25   59328
   59325      24   59331   59325      24   59331   59328      25   59337   59334
      24   59340   59334      24   59340   59337      25   59346   59343      24
   59349   59343      24   59349   59346      25   59355   59352      24   59358
   59352      24   59358   59355      25   59364   59361      24   59367   59361
      24   59367   59364      25   59373   59370      24   59376   59370      24
   59376   59373      25   59382   59379      24   59385   59379      24   59385
   59382      25   59391   59388      24   59394   59388      24   59394   59391
      25   59400   59397      24   59403   59397      24   59403   59400      25
   59409   59406      24   59412   59406      24   59412   59409      25   59418
   59415      24   59421   59415      24   59421   59418      25   59427   59424
      24   59430   59424      24   59430   59427      25   59436   59433      24
   59439   59433      24   59439   59436      25   59445   59442      24   59448
   59442      24   59448   59445      25   59454   59451      24   59457   59451
      24   59457   59454      25   59463   59460      24   59466   59460      24
   59466   59463      25   59472   59469      24   59475   59469      24   59475
   59472      25   59481   59478      24   59484   59478      24   59484   59481
      25   59490   59487      24   59493   59487      24   59493   59490      25
   59499   59496      24   59502   59496      24   59502   59499      25   59508
   59505      24   59511   59505      24   59511   59508      25   59517   59514
      24   59520   59514      24   59520   59517      25   59526   59523      24
   59529   59523      24   59529   59526      25   59535   59532      24   59538
   59532      24   59538   59535      25   59544   59541      24   59547   59541
      24   59547   59544      25   59553   59550      24   59556   59550      24
   59556   59553      25   59562   59559      24   59565   59559      24   59565
   59562      25   59571   59568      24   59574   59568      24   59574   59571
      25   59580   59577      24   59583   59577      24   59583   59580      25
   59589   59586      24   59592   59586      24   59592   59589      25   59598
   59595      24   59601   59595      24   59601   59598      25   59607   59604
      24   59610   59604      24   59610   59607      25   59616   59613      24
   59619   59613      24   59619   59616      25   59625   59622      24   59628
   59622      24   59628   59625      25   59634   59631      24   59637   59631
      24   59637   59634      25   59643   59640      24   59646   59640      24
   59646   59643      25   59652   59649      24   59655   59649      24   59655
   59652      25   59661   59658      24   59664   59658      24   59664   59661
      25   59670   59667      24   59673   59667      24   59673   59670      25
   59679   59676      24   59682   59676      24   59682   59679      25   59688
   59685      24   59691   59685      24   59691   59688      25   59697   59694
      24   59700   59694      24   59700   59697      25   59706   59703      24
   59709   59703      24   59709   59706      25   59715   59712      24   59718
   59712      24   59718   59715      25   59724   59721      24   59727   59721
      24   59727   59724      25   59733   59730      24   59736   59730      24
   59736   59733      25   59742   59739      24   59745   59739      24   59745
   59742      25   59751   59748      24   59754   59748      24   59754   59751
      25   59760   59757      24   59763   59757      24   59763   59760      25
   59769   59766      24   59772   59766      24   59772   59769      25   59778
   59775      24   59781   59775      24   59781   59778      25   59787   59784
      24   59790   59784      24   59790   59787      25   59796   59793      24
   59799   59793      24   59799   59796      25   59805   59802      24   59808
   59802      24   59808   59805      25   59814   59811      24   59817   59811
      24   59817   59814      25   59823   59820      24   59826   59820      24
   59826   59823      25   59832   59829      24   59835   59829      24   59835
   59832      25   59841   59838      24   59844   59838      24   59844   59841
      25   59850   59847      24   59853   59847      24   59853   59850      25
   59859   59856      24   59862   59856      24   59862   59859      25   59868
   59865      24   59871   59865      24   59871   59868      25   59877   59874
      24   59880   59874      24   59880   59877      25   59886   59883      24
   59889   59883      24   59889   59886      25   59895   59892      24   59898
   59892      24   59898   59895      25   59904   59901      24   59907   59901
      24   59907   59904      25   59913   59910      24   59916   59910      24
   59916   59913      25   59922   59919      24   59925   59919      24   59925
   59922      25   59931   59928      24   59934   59928      24   59934   59931
      25   59940   59937      24   59943   59937      24   59943   59940      25
   59949   59946      24   59952   59946      24   59952   59949      25   59958
   59955      24   59961   59955      24   59961   59958      25   59967   59964
      24   59970   59964      24   59970   59967      25   59976   59973      24
   59979   59973      24   59979   59976      25   59985   59982      24   59988
   59982      24   59988   59985      25   59994   59991      24   59997   59991
      24   59997   59994      25   60003   60000      24   60006   60000      24
   60006   60003      25   60012   60009      24   60015   60009      24   60015
   60012      25   60021   60018      24   60024   60018      24   60024   60021
      25   60030   60027      24   60033   60027      24   60033   60030      25
   60039   60036      24   60042   60036      24   60042   60039      25   60048
   60045      24   60051   60045      24   60051   60048      25   60057   60054
      24   60060   60054      24   60060   60057      25   60066   60063      24
   60069   60063      24   60069   60066      25   60075   60072      24   60078
   60072      24   60078   60075      25   60084   60081      24   60087   60081
      24   60087   60084      25   60093   60090      24   60096   60090      24
   60096   60093      25   60102   60099      24   60105   60099      24   60105
   60102      25   60111   60108      24   60114   60108      24   60114   60111
      25   60120   60117      24   60123   60117      24   60123   60120      25
   60129   60126      24   60132   60126      24   60132   60129      25   60138
   60135      24   60141   60135      24   60141   60138      25   60147   60144
      24   60150   60144      24   60150   60147      25   60156   60153      24
   60159   60153      24   60159   60156      25   60165   60162      24   60168
   60162      24   60168   60165      25   60174   60171      24   60177   60171
      24   60177   60174      25   60183   60180      24   60186   60180      24
   60186   60183      25   60192   60189      24   60195   60189      24   60195
   60192      25   60201   60198      24   60204   60198      24   60204   60201
      25   60210   60207      24   60213   60207      24   60213   60210      25
   60219   60216      24   60222   60216      24   60222   60219      25   60228
   60225      24   60231   60225      24   60231   60228      25   60237   60234
      24   60240   60234      24   60240   60237      25   60246   60243      24
   60249   60243      24   60249   60246      25   60255   60252      24   60258
   60252      24   60258   60255      25   60264   60261      24   60267   60261
      24   60267   60264      25   60273   60270      24   60276   60270      24
   60276   60273      25   60282   60279      24   60285   60279      24   60285
   60282      25   60291   60288      24   60294   60288      24   60294   60291
      25   60300   60297      24   60303   60297      24   60303   60300      25
   60309   60306      24   60312   60306      24   60312   60309      25   60318
   60315      24   60321   60315      24   60321   60318      25   60327   60324
      24   60330   60324      24   60330   60327      25   60336   60333      24
   60339   60333      24   60339   60336      25   60345   60342      24   60348
   60342      24   60348   60345      25   60354   60351      24   60357   60351
      24   60357   60354      25   60363   60360      24   60366   60360      24
   60366   60363      25   60372   60369      24   60375   60369      24   60375
   60372      25   60381   60378      24   60384   60378      24   60384   60381
      25   60390   60387      24   60393   60387      24   60393   60390      25
   60399   60396      24   60402   60396      24   60402   60399      25   60408
   60405      24   60411   60405      24   60411   60408      25   60417   60414
      24   60420   60414      24   60420   60417      25   60426   60423      24
   60429   60423      24   60429   60426      25   60435   60432      24   60438
   60432      24   60438   60435      25   60444   60441      24   60447   60441
      24   60447   60444      25   60453   60450      24   60456   60450      24
   60456   60453      25   60462   60459      24   60465   60459      24   60465
   60462      25   60471   60468      24   60474   60468      24   60474   60471
      25   60480   60477      24   60483   60477      24   60483   60480      25
   60489   60486      24   60492   60486      24   60492   60489      25   60498
   60495      24   60501   60495      24   60501   60498      25   60507   60504
      24   60510   60504      24   60510   60507      25   60516   60513      24
   60519   60513      24   60519   60516      25   60525   60522      24   60528
   60522      24   60528   60525      25   60534   60531      24   60537   60531
      24   60537   60534      25   60543   60540      24   60546   60540      24
   60546   60543      25   60552   60549      24   60555   60549      24   60555
   60552      25   60561   60558      24   60564   60558      24   60564   60561
      25   60570   60567      24   60573   60567      24   60573   60570      25
   60579   60576      24   60582   60576      24   60582   60579      25   60588
   60585      24   60591   60585      24   60591   60588      25   60597   60594
      24   60600   60594      24   60600   60597      25   60606   60603      24
   60609   60603      24   60609   60606      25   60615   60612      24   60618
   60612      24   60618   60615      25   60624   60621      24   60627   60621
      24   60627   60624      25   60633   60630      24   60636   60630      24
   60636   60633      25   60642   60639      24   60645   60639      24   60645
   60642      25   60651   60648      24   60654   60648      24   60654   60651
      25   60660   60657      24   60663   60657      24   60663   60660      25
   60669   60666      24   60672   60666      24   60672   60669      25   60678
   60675      24   60681   60675      24   60681   60678      25   60687   60684
      24   60690   60684      24   60690   60687      25   60696   60693      24
   60699   60693      24   60699   60696      25   60705   60702      24   60708
   60702      24   60708   60705      25   60714   60711      24   60717   60711
      24   60717   60714      25   60723   60720      24   60726   60720      24
   60726   60723      25   60732   60729      24   60735   60729      24   60735
   60732      25   60741   60738      24   60744   60738      24   60744   60741
      25   60750   60747      24   60753   60747      24   60753   60750      25
   60759   60756      24   60762   60756      24   60762   60759      25   60768
   60765      24   60771   60765      24   60771   60768      25   60777   60774
      24   60780   60774      24   60780   60777      25   60786   60783      24
   60789   60783      24   60789   60786      25   60795   60792      24   60798
   60792      24   60798   60795      25   60804   60801      24   60807   60801
      24   60807   60804      25   60813   60810      24   60816   60810      24
   60816   60813      25   60822   60819      24   60825   60819      24   60825
   60822      25   60831   60828      24   60834   60828      24   60834   60831
      25   60840   60837      24   60843   60837      24   60843   60840      25
   60849   60846      24   60852   60846      24   60852   60849      25   60858
   60855      24   60861   60855      24   60861   60858      25   60867   60864
      24   60870   60864      24   60870   60867      25   60876   60873      24
   60879   60873      24   60879   60876      25   60885   60882      24   60888
   60882      24   60888   60885      25   60894   60891      24   60897   60891
      24   60897   60894      25   60903   60900      24   60906   60900      24
   60906   60903      25   60912   60909      24   60915   60909      24   60915
   60912      25   60921   60918      24   60924   60918      24   60924   60921
      25   60930   60927      24   60933   60927      24   60933   60930      25
   60939   60936      24   60942   60936      24   60942   60939      25   60948
   60945      24   60951   60945      24   60951   60948      25   60957   60954
      24   60960   60954      24   60960   60957      25   60966   60963      24
   60969   60963      24   60969   60966      25   60975   60972      24   60978
   60972      24   60978   60975      25   60984   60981      24   60987   60981
      24   60987   60984      25   60993   60990      24   60996   60990      24
   60996   60993      25   61002   60999      24   61005   60999      24   61005
   61002      25   61011   61008      24   61014   61008      24   61014   61011
      25   61020   61017      24   61023   61017      24   61023   61020      25
   61029   61026      24   61032   61026      24   61032   61029      25   61038
   61035      24   61041   61035      24   61041   61038      25   61047   61044
      24   61050   61044      24   61050   61047      25   61056   61053      24
   61059   61053      24   61059   61056      25   61065   61062      24   61068
   61062      24   61068   61065      25   61074   61071      24   61077   61071
      24   61077   61074      25   61083   61080      24   61086   61080      24
   61086   61083      25   61092   61089      24   61095   61089      24   61095
   61092      25   61101   61098      24   61104   61098      24   61104   61101
      25   61110   61107      24   61113   61107      24   61113   61110      25
   61119   61116      24   61122   61116      24   61122   61119      25   61128
   61125      24   61131   61125      24   61131   61128      25   61137   61134
      24   61140   61134      24   61140   61137      25   61146   61143      24
   61149   61143      24   61149   61146      25   61155   61152      24   61158
   61152      24   61158   61155      25   61164   61161      24   61167   61161
      24   61167   61164      25   61173   61170      24   61176   61170      24
   61176   61173      25   61182   61179      24   61185   61179      24   61185
   61182      25   61191   61188      24   61194   61188      24   61194   61191
      25   61200   61197      24   61203   61197      24   61203   61200      25
   61209   61206      24   61212   61206      24   61212   61209      25   61218
   61215      24   61221   61215      24   61221   61218      25   61227   61224
      24   61230   61224      24   61230   61227      25   61236   61233      24
   61239   61233      24   61239   61236      25   61245   61242      24   61248
   61242      24   61248   61245      25   61254   61251      24   61257   61251
      24   61257   61254      25   61263   61260      24   61266   61260      24
   61266   61263      25   61272   61269      24   61275   61269      24   61275
   61272      25   61281   61278      24   61284   61278      24   61284   61281
      25   61290   61287      24   61293   61287      24   61293   61290      25
   61299   61296      24   61302   61296      24   61302   61299      25   61308
   61305      24   61311   61305      24   61311   61308      25   61317   61314
      24   61320   61314      24   61320   61317      25   61326   61323      24
   61329   61323      24   61329   61326      25   61335   61332      24   61338
   61332      24   61338   61335      25   61344   61341      24   61347   61341
      24   61347   61344      25   61353   61350      24   61356   61350      24
   61356   61353      25   61362   61359      24   61365   61359      24   61365
   61362      25   61371   61368      24   61374   61368      24   61374   61371
      25   61380   61377      24   61383   61377      24   61383   61380      25
   61389   61386      24   61392   61386      24   61392   61389      25   61398
   61395      24   61401   61395      24   61401   61398      25   61407   61404
      24   61410   61404      24   61410   61407      25   61416   61413      24
   61419   61413      24   61419   61416      25   61425   61422      24   61428
   61422      24   61428   61425      25   61434   61431      24   61437   61431
      24   61437   61434      25   61443   61440      24   61446   61440      24
   61446   61443      25   61452   61449      24   61455   61449      24   61455
   61452      25   61461   61458      24   61464   61458      24   61464   61461
      25   61470   61467      24   61473   61467      24   61473   61470      25
   61479   61476      24   61482   61476      24   61482   61479      25   61488
   61485      24   61491   61485      24   61491   61488      25   61497   61494
      24   61500   61494      24   61500   61497      25   61506   61503      24
   61509   61503      24   61509   61506      25   61515   61512      24   61518
   61512      24   61518   61515      25   61524   61521      24   61527   61521
      24   61527   61524      25   61533   61530      24   61536   61530      24
   61536   61533      25   61542   61539      24   61545   61539      24   61545
   61542      25   61551   61548      24   61554   61548      24   61554   61551
      25   61560   61557      24   61563   61557      24   61563   61560      25
   61569   61566      24   61572   61566      24   61572   61569      25   61578
   61575      24   61581   61575      24   61581   61578      25   61587   61584
      24   61590   61584      24   61590   61587      25   61596   61593      24
   61599   61593      24   61599   61596      25   61605   61602      24   61608
   61602      24   61608   61605      25   61614   61611      24   61617   61611
      24   61617   61614      25   61623   61620      24   61626   61620      24
   61626   61623      25   61632   61629      24   61635   61629      24   61635
   61632      25   61641   61638      24   61644   61638      24   61644   61641
      25   61650   61647      24   61653   61647      24   61653   61650      25
   61659   61656      24   61662   61656      24   61662   61659      25   61668
   61665      24   61671   61665      24   61671   61668      25   61677   61674
      24   61680   61674      24   61680   61677      25   61686   61683      24
   61689   61683      24   61689   61686      25   61695   61692      24   61698
   61692      24   61698   61695      25   61704   61701      24   61707   61701
      24   61707   61704      25   61713   61710      24   61716   61710      24
   61716   61713      25   61722   61719      24   61725   61719      24   61725
   61722      25   61731   61728      24   61734   61728      24   61734   61731
      25   61740   61737      24   61743   61737      24   61743   61740      25
   61749   61746      24   61752   61746      24   61752   61749      25   61758
   61755      24   61761   61755      24   61761   61758      25   61767   61764
      24   61770   61764      24   61770   61767      25   61776   61773      24
   61779   61773      24   61779   61776      25   61785   61782      24   61788
   61782      24   61788   61785      25   61794   61791      24   61797   61791
      24   61797   61794      25   61803   61800      24   61806   61800      24
   61806   61803      25   61812   61809      24   61815   61809      24   61815
   61812      25   61821   61818      24   61824   61818      24   61824   61821
      25   61830   61827      24   61833   61827      24   61833   61830      25
   61839   61836      24   61842   61836      24   61842   61839      25   61848
   61845      24   61851   61845      24   61851   61848      25   61857   61854
      24   61860   61854      24   61860   61857      25   61866   61863      24
   61869   61863      24   61869   61866      25   61875   61872      24   61878
   61872      24   61878   61875      25   61884   61881      24   61887   61881
      24   61887   61884      25   61893   61890      24   61896   61890      24
   61896   61893      25   61902   61899      24   61905   61899      24   61905
   61902      25   61911   61908      24   61914   61908      24   61914   61911
      25   61920   61917      24   61923   61917      24   61923   61920      25
   61929   61926      24   61932   61926      24   61932   61929      25   61938
   61935      24   61941   61935      24   61941   61938      25   61947   61944
      24   61950   61944      24   61950   61947      25   61956   61953      24
   61959   61953      24   61959   61956      25   61965   61962      24   61968
   61962      24   61968   61965      25   61974   61971      24   61977   61971
      24   61977   61974      25   61983   61980      24   61986   61980      24
   61986   61983      25   61992   61989      24   61995   61989      24   61995
   61992      25   62001   61998      24   62004   61998      24   62004   62001
      25   62010   62007      24   62013   62007      24   62013   62010      25
   62019   62016      24   62022   62016      24   62022   62019      25   62028
   62025      24   62031   62025      24   62031   62028      25   62037   62034
      24   62040   62034      24   62040   62037      25   62046   62043      24
   62049   62043      24   62049   62046      25   62055   62052      24   62058
   62052      24   62058   62055      25   62064   62061      24   62067   62061
      24   62067   62064      25   62073   62070      24   62076   62070      24
   62076   62073      25   62082   62079      24   62085   62079      24   62085
   62082      25   62091   62088      24   62094   62088      24   62094   62091
      25   62100   62097      24   62103   62097      24   62103   62100      25
   62109   62106      24   62112   62106      24   62112   62109      25   62118
   62115      24   62121   62115      24   62121   62118      25   62127   62124
      24   62130   62124      24   62130   62127      25   62136   62133      24
   62139   62133      24   62139   62136      25   62145   62142      24   62148
   62142      24   62148   62145      25   62154   62151      24   62157   62151
      24   62157   62154      25   62163   62160      24   62166   62160      24
   62166   62163      25   62172   62169      24   62175   62169      24   62175
   62172      25   62181   62178      24   62184   62178      24   62184   62181
      25   62190   62187      24   62193   62187      24   62193   62190      25
   62199   62196      24   62202   62196      24   62202   62199      25   62208
   62205      24   62211   62205      24   62211   62208      25   62217   62214
      24   62220   62214      24   62220   62217      25   62226   62223      24
   62229   62223      24   62229   62226      25   62235   62232      24   62238
   62232      24   62238   62235      25   62244   62241      24   62247   62241
      24   62247   62244      25   62253   62250      24   62256   62250      24
   62256   62253      25   62262   62259      24   62265   62259      24   62265
   62262      25   62271   62268      24   62274   62268      24   62274   62271
      25   62280   62277      24   62283   62277      24   62283   62280      25
   62289   62286      24   62292   62286      24   62292   62289      25   62298
   62295      24   62301   62295      24   62301   62298      25   62307   62304
      24   62310   62304      24   62310   62307      25   62316   62313      24
   62319   62313      24   62319   62316      25   62325   62322      24   62328
   62322      24   62328   62325      25   62334   62331      24   62337   62331
      24   62337   62334      25   62343   62340      24   62346   62340      24
   62346   62343      25   62352   62349      24   62355   62349      24   62355
   62352      25   62361   62358      24   62364   62358      24   62364   62361
      25   62370   62367      24   62373   62367      24   62373   62370      25
   62379   62376      24   62382   62376      24   62382   62379      25   62388
   62385      24   62391   62385      24   62391   62388      25   62397   62394
      24   62400   62394      24   62400   62397      25   62406   62403      24
   62409   62403      24   62409   62406      25   62415   62412      24   62418
   62412      24   62418   62415      25   62424   62421      24   62427   62421
      24   62427   62424      25   62433   62430      24   62436   62430      24
   62436   62433      25   62442   62439      24   62445   62439      24   62445
   62442      25   62451   62448      24   62454   62448      24   62454   62451
      25   62460   62457      24   62463   62457      24   62463   62460      25
   62469   62466      24   62472   62466      24   62472   62469      25   62478
   62475      24   62481   62475      24   62481   62478      25   62487   62484
      24   62490   62484      24   62490   62487      25   62496   62493      24
   62499   62493      24   62499   62496      25   62505   62502      24   62508
   62502      24   62508   62505      25   62514   62511      24   62517   62511
      24   62517   62514      25   62523   62520      24   62526   62520      24
   62526   62523      25   62532   62529      24   62535   62529      24   62535
   62532      25   62541   62538      24   62544   62538      24   62544   62541
      25   62550   62547      24   62553   62547      24   62553   62550      25
   62559   62556      24   62562   62556      24   62562   62559      25   62568
   62565      24   62571   62565      24   62571   62568      25   62577   62574
      24   62580   62574      24   62580   62577      25   62586   62583      24
   62589   62583      24   62589   62586      25   62595   62592      24   62598
   62592      24   62598   62595      25   62604   62601      24   62607   62601
      24   62607   62604      25   62613   62610      24   62616   62610      24
   62616   62613      25   62622   62619      24   62625   62619      24   62625
   62622      25   62631   62628      24   62634   62628      24   62634   62631
      25   62640   62637      24   62643   62637      24   62643   62640      25
   62649   62646      24   62652   62646      24   62652   62649      25   62658
   62655      24   62661   62655      24   62661   62658      25   62667   62664
      24   62670   62664      24   62670   62667      25   62676   62673      24
   62679   62673      24   62679   62676      25   62685   62682      24   62688
   62682      24   62688   62685      25   62694   62691      24   62697   62691
      24   62697   62694      25   62703   62700      24   62706   62700      24
   62706   62703      25   62712   62709      24   62715   62709      24   62715
   62712      25   62721   62718      24   62724   62718      24   62724   62721
      25   62730   62727      24   62733   62727      24   62733   62730      25
   62739   62736      24   62742   62736      24   62742   62739      25   62748
   62745      24   62751   62745      24   62751   62748      25   62757   62754
      24   62760   62754      24   62760   62757      25   62766   62763      24
   62769   62763      24   62769   62766      25   62775   62772      24   62778
   62772      24   62778   62775      25   62784   62781      24   62787   62781
      24   62787   62784      25   62793   62790      24   62796   62790      24
   62796   62793      25   62802   62799      24   62805   62799      24   62805
   62802      25   62811   62808      24   62814   62808      24   62814   62811
      25   62820   62817      24   62823   62817      24   62823   62820      25
   62829   62826      24   62832   62826      24   62832   62829      25   62838
   62835      24   62841   62835      24   62841   62838      25   62847   62844
      24   62850   62844      24   62850   62847      25   62856   62853      24
   62859   62853      24   62859   62856      25   62865   62862      24   62868
   62862      24   62868   62865      25   62874   62871      24   62877   62871
      24   62877   62874      25   62883   62880      24   62886   62880      24
   62886   62883      25   62892   62889      24   62895   62889      24   62895
   62892      25   62901   62898      24   62904   62898      24   62904   62901
      25   62910   62907      24   62913   62907      24   62913   62910      25
   62919   62916      24   62922   62916      24   62922   62919      25   62928
   62925      24   62931   62925      24   62931   62928      25   62937   62934
      24   62940   62934      24   62940   62937      25   62946   62943      24
   62949   62943      24   62949   62946      25   62955   62952      24   62958
   62952      24   62958   62955      25   62964   62961      24   62967   62961
      24   62967   62964      25   62973   62970      24   62976   62970      24
   62976   62973      25   62982   62979      24   62985   62979      24   62985
   62982      25   62991   62988      24   62994   62988      24   62994   62991
      25   63000   62997      24   63003   62997      24   63003   63000      25
   63009   63006      24   63012   63006      24   63012   63009      25   63018
   63015      24   63021   63015      24   63021   63018      25   63027   63024
      24   63030   63024      24   63030   63027      25   63036   63033      24
   63039   63033      24   63039   63036      25   63045   63042      24   63048
   63042      24   63048   63045      25   63054   63051      24   63057   63051
      24   63057   63054      25   63063   63060      24   63066   63060      24
   63066   63063      25   63072   63069      24   63075   63069      24   63075
   63072      25   63081   63078      24   63084   63078      24   63084   63081
      25   63090   63087      24   63093   63087      24   63093   63090      25
   63099   63096      24   63102   63096      24   63102   63099      25   63108
   63105      24   63111   63105      24   63111   63108      25   63117   63114
      24   63120   63114      24   63120   63117      25   63126   63123      24
   63129   63123      24   63129   63126      25   63135   63132      24   63138
   63132      24   63138   63135      25   63144   63141      24   63147   63141
      24   63147   63144      25   63153   63150      24   63156   63150      24
   63156   63153      25   63162   63159      24   63165   63159      24   63165
   63162      25   63171   63168      24   63174   63168      24   63174   63171
      25   63180   63177      24   63183   63177      24   63183   63180      25
   63189   63186      24   63192   63186      24   63192   63189      25   63198
   63195      24   63201   63195      24   63201   63198      25   63207   63204
      24   63210   63204      24   63210   63207      25   63216   63213      24
   63219   63213      24   63219   63216      25   63225   63222      24   63228
   63222      24   63228   63225      25   63234   63231      24   63237   63231
      24   63237   63234      25   63243   63240      24   63246   63240      24
   63246   63243      25   63252   63249      24   63255   63249      24   63255
   63252      25   63261   63258      24   63264   63258      24   63264   63261
      25   63270   63267      24   63273   63267      24   63273   63270      25
   63279   63276      24   63282   63276      24   63282   63279      25   63288
   63285      24   63291   63285      24   63291   63288      25   63297   63294
      24   63300   63294      24   63300   63297      25   63306   63303      24
   63309   63303      24   63309   63306      25   63315   63312      24   63318
   63312      24   63318   63315      25   63324   63321      24   63327   63321
      24   63327   63324      25   63333   63330      24   63336   63330      24
   63336   63333      25   63342   63339      24   63345   63339      24   63345
   63342      25   63351   63348      24   63354   63348      24   63354   63351
      25   63360   63357      24   63363   63357      24   63363   63360      25
   63369   63366      24   63372   63366      24   63372   63369      25   63378
   63375      24   63381   63375      24   63381   63378      25   63387   63384
      24   63390   63384      24   63390   63387      25   63396   63393      24
   63399   63393      24   63399   63396      25   63405   63402      24   63408
   63402      24   63408   63405      25   63414   63411      24   63417   63411
      24   63417   63414      25   63423   63420      24   63426   63420      24
   63426   63423      25   63432   63429      24   63435   63429      24   63435
   63432      25   63441   63438      24   63444   63438      24   63444   63441
      25   63450   63447      24   63453   63447      24   63453   63450      25
   63459   63456      24   63462   63456      24   63462   63459      25   63468
   63465      24   63471   63465      24   63471   63468      25   63477   63474
      24   63480   63474      24   63480   63477      25   63486   63483      24
   63489   63483      24   63489   63486      25   63495   63492      24   63498
   63492      24   63498   63495      25   63504   63501      24   63507   63501
      24   63507   63504      25   63513   63510      24   63516   63510      24
   63516   63513      25   63522   63519      24   63525   63519      24   63525
   63522      25   63531   63528      24   63534   63528      24   63534   63531
      25   63540   63537      24   63543   63537      24   63543   63540      25
   63549   63546      24   63552   63546      24   63552   63549      25   63558
   63555      24   63561   63555      24   63561   63558      25   63567   63564
      24   63570   63564      24   63570   63567      25   63576   63573      24
   63579   63573      24   63579   63576      25   63585   63582      24   63588
   63582      24   63588   63585      25   63594   63591      24   63597   63591
      24   63597   63594      25   63603   63600      24   63606   63600      24
   63606   63603      25   63612   63609      24   63615   63609      24   63615
   63612      25   63621   63618      24   63624   63618      24   63624   63621
      25   63630   63627      24   63633   63627      24   63633   63630      25
   63639   63636      24   63642   63636      24   63642   63639      25   63648
   63645      24   63651   63645      24   63651   63648      25   63657   63654
      24   63660   63654      24   63660   63657      25   63666   63663      24
   63669   63663      24   63669   63666      25   63675   63672      24   63678
   63672      24   63678   63675      25   63684   63681      24   63687   63681
      24   63687   63684      25   63693   63690      24   63696   63690      24
   63696   63693      25   63702   63699      24   63705   63699      24   63705
   63702      25   63711   63708      24   63714   63708      24   63714   63711
      25   63720   63717      24   63723   63717      24   63723   63720      25
   63729   63726      24   63732   63726      24   63732   63729      25   63738
   63735      24   63741   63735      24   63741   63738      25   63747   63744
      24   63750   63744      24   63750   63747      25   63756   63753      24
   63759   63753      24   63759   63756      25   63765   63762      24   63768
   63762      24   63768   63765      25   63774   63771      24   63777   63771
      24   63777   63774      25   63783   63780      24   63786   63780      24
   63786   63783      25   63792   63789      24   63795   63789      24   63795
   63792      25   63801   63798      24   63804   63798      24   63804   63801
      25   63810   63807      24   63813   63807      24   63813   63810      25
   63819   63816      24   63822   63816      24   63822   63819      25   63828
   63825      24   63831   63825      24   63831   63828      25   63837   63834
      24   63840   63834      24   63840   63837      25   63846   63843      24
   63849   63843      24   63849   63846      25   63855   63852      24   63858
   63852      24   63858   63855      25   63864   63861      24   63867   63861
      24   63867   63864      25   63873   63870      24   63876   63870      24
   63876   63873      25   63882   63879      24   63885   63879      24   63885
   63882      25   63891   63888      24   63894   63888      24   63894   63891
      25   63900   63897      24   63903   63897      24   63903   63900      25
   63909   63906      24   63912   63906      24   63912   63909      25   63918
   63915      24   63921   63915      24   63921   63918      25   63927   63924
      24   63930   63924      24   63930   63927      25   63936   63933      24
   63939   63933      24   63939   63936      25   63945   63942      24   63948
   63942      24   63948   63945      25   63954   63951      24   63957   63951
      24   63957   63954      25   63963   63960      24   63966   63960      24
   63966   63963      25   63972   63969      24   63975   63969      24   63975
   63972      25   63981   63978      24   63984   63978      24   63984   63981
      25   63990   63987      24   63993   63987      24   63993   63990      25
   63999   63996      24   64002   63996      24   64002   63999      25   64008
   64005      24   64011   64005      24   64011   64008      25   64017   64014
      24   64020   64014      24   64020   64017      25   64026   64023      24
   64029   64023      24   64029   64026      25   64035   64032      24   64038
   64032      24   64038   64035      25   64044   64041      24   64047   64041
      24   64047   64044      25   64053   64050      24   64056   64050      24
   64056   64053      25   64062   64059      24   64065   64059      24   64065
   64062      25   64071   64068      24   64074   64068      24   64074   64071
      25   64080   64077      24   64083   64077      24   64083   64080      25
   64089   64086      24   64092   64086      24   64092   64089      25   64098
   64095      24   64101   64095      24   64101   64098      25   64107   64104
      24   64110   64104      24   64110   64107      25   64116   64113      24
   64119   64113      24   64119   64116      25   64125   64122      24   64128
   64122      24   64128   64125      25   64134   64131      24   64137   64131
      24   64137   64134      25   64143   64140      24   64146   64140      24
   64146   64143      25   64152   64149      24   64155   64149      24   64155
   64152      25   64161   64158      24   64164   64158      24   64164   64161
      25   64170   64167      24   64173   64167      24   64173   64170      25
   64179   64176      24   64182   64176      24   64182   64179      25   64188
   64185      24   64191   64185      24   64191   64188      25   64197   64194
      24   64200   64194      24   64200   64197      25   64206   64203      24
   64209   64203      24   64209   64206      25   64215   64212      24   64218
   64212      24   64218   64215      25   64224   64221      24   64227   64221
      24   64227   64224      25   64233   64230      24   64236   64230      24
   64236   64233      25   64242   64239      24   64245   64239      24   64245
   64242      25   64251   64248      24   64254   64248      24   64254   64251
      25   64260   64257      24   64263   64257      24   64263   64260      25
   64269   64266      24   64272   64266      24   64272   64269      25   64278
   64275      24   64281   64275      24   64281   64278      25   64287   64284
      24   64290   64284      24   64290   64287      25   64296   64293      24
   64299   64293      24   64299   64296      25   64305   64302      24   64308
   64302      24   64308   64305      25   64314   64311      24   64317   64311
      24   64317   64314      25   64323   64320      24   64326   64320      24
   64326   64323      25   64332   64329      24   64335   64329      24   64335
   64332      25   64341   64338      24   64344   64338      24   64344   64341
      25   64350   64347      24   64353   64347      24   64353   64350      25
   64359   64356      24   64362   64356      24   64362   64359      25   64368
   64365      24   64371   64365      24   64371   64368      25   64377   64374
      24   64380   64374      24   64380   64377      25   64386   64383      24
   64389   64383      24   64389   64386      25   64395   64392      24   64398
   64392      24   64398   64395      25   64404   64401      24   64407   64401
      24   64407   64404      25   64413   64410      24   64416   64410      24
   64416   64413      25   64422   64419      24   64425   64419      24   64425
   64422      25   64431   64428      24   64434   64428      24   64434   64431
      25   64440   64437      24   64443   64437      24   64443   64440      25
   64449   64446      24   64452   64446      24   64452   64449      25   64458
   64455      24   64461   64455      24   64461   64458      25   64467   64464
      24   64470   64464      24   64470   64467      25   64476   64473      24
   64479   64473      24   64479   64476      25   64485   64482      24   64488
   64482      24   64488   64485      25   64494   64491      24   64497   64491
      24   64497   64494      25   64503   64500      24   64506   64500      24
   64506   64503      25   64512   64509      24   64515   64509      24   64515
   64512      25   64521   64518      24   64524   64518      24   64524   64521
      25   64530   64527      24   64533   64527      24   64533   64530      25
   64539   64536      24   64542   64536      24   64542   64539      25   64548
   64545      24   64551   64545      24   64551   64548      25   64557   64554
      24   64560   64554      24   64560   64557      25   64566   64563      24
   64569   64563      24   64569   64566      25   64575   64572      24   64578
   64572      24   64578   64575      25   64584   64581      24   64587   64581
      24   64587   64584      25   64593   64590      24   64596   64590      24
   64596   64593      25   64602   64599      24   64605   64599      24   64605
   64602      25   64611   64608      24   64614   64608      24   64614   64611
      25   64620   64617      24   64623   64617      24   64623   64620      25
   64629   64626      24   64632   64626      24   64632   64629      25   64638
   64635      24   64641   64635      24   64641   64638      25   64647   64644
      24   64650   64644      24   64650   64647      25   64656   64653      24
   64659   64653      24   64659   64656      25   64665   64662      24   64668
   64662      24   64668   64665      25   64674   64671      24   64677   64671
      24   64677   64674      25   64683   64680      24   64686   64680      24
   64686   64683      25   64692   64689      24   64695   64689      24   64695
   64692      25   64701   64698      24   64704   64698      24   64704   64701
      25   64710   64707      24   64713   64707      24   64713   64710      25
   64719   64716      24   64722   64716      24   64722   64719      25   64728
   64725      24   64731   64725      24   64731   64728      25   64737   64734
      24   64740   64734      24   64740   64737      25   64746   64743      24
   64749   64743      24   64749   64746      25   64755   64752      24   64758
   64752      24   64758   64755      25   64764   64761      24   64767   64761
      24   64767   64764      25   64773   64770      24   64776   64770      24
   64776   64773      25   64782   64779      24   64785   64779      24   64785
   64782      25   64791   64788      24   64794   64788      24   64794   64791
      25   64800   64797      24   64803   64797      24   64803   64800      25
   64809   64806      24   64812   64806      24   64812   64809      25   64818
   64815      24   64821   64815      24   64821   64818      25   64827   64824
      24   64830   64824      24   64830   64827      25   64836   64833      24
   64839   64833      24   64839   64836      25   64845   64842      24   64848
   64842      24   64848   64845      25   64854   64851      24   64857   64851
      24   64857   64854      25   64863   64860      24   64866   64860      24
   64866   64863      25   64872   64869      24   64875   64869      24   64875
   64872      25   64881   64878      24   64884   64878      24   64884   64881
      25   64890   64887      24   64893   64887      24   64893   64890      25
   64899   64896      24   64902   64896      24   64902   64899      25   64908
   64905      24   64911   64905      24   64911   64908      25   64917   64914
      24   64920   64914      24   64920   64917      25   64926   64923      24
   64929   64923      24   64929   64926      25   64935   64932      24   64938
   64932      24   64938   64935      25   64944   64941      24   64947   64941
      24   64947   64944      25   64953   64950      24   64956   64950      24
   64956   64953      25   64962   64959      24   64965   64959      24   64965
   64962      25   64971   64968      24   64974   64968      24   64974   64971
      25   64980   64977      24   64983   64977      24   64983   64980      25
   64989   64986      24   64992   64986      24   64992   64989      25   64998
   64995      24   65001   64995      24   65001   64998      25   65007   65004
      24   65010   65004      24   65010   65007      25   65016   65013      24
   65019   65013      24   65019   65016      25   65025   65022      24   65028
   65022      24   65028   65025      25   65034   65031      24   65037   65031
      24   65037   65034      25   65043   65040      24   65046   65040      24
   65046   65043      25   65052   65049      24   65055   65049      24   65055
   65052      25   65061   65058      24   65064   65058      24   65064   65061
      25   65070   65067      24   65073   65067      24   65073   65070      25
   65079   65076      24   65082   65076      24   65082   65079      25   65088
   65085      24   65091   65085      24   65091   65088      25   65097   65094
      24   65100   65094      24   65100   65097      25   65106   65103      24
   65109   65103      24   65109   65106      25   65115   65112      24   65118
   65112      24   65118   65115      25   65124   65121      24   65127   65121
      24   65127   65124      25   65133   65130      24   65136   65130      24
   65136   65133      25   65142   65139      24   65145   65139      24   65145
   65142      25   65151   65148      24   65154   65148      24   65154   65151
      25   65160   65157      24   65163   65157      24   65163   65160      25
   65169   65166      24   65172   65166      24   65172   65169      25   65178
   65175      24   65181   65175      24   65181   65178      25   65187   65184
      24   65190   65184      24   65190   65187      25   65196   65193      24
   65199   65193      24   65199   65196      25   65205   65202      24   65208
   65202      24   65208   65205      25   65214   65211      24   65217   65211
      24   65217   65214      25   65223   65220      24   65226   65220      24
   65226   65223      25   65232   65229      24   65235   65229      24   65235
   65232      25   65241   65238      24   65244   65238      24   65244   65241
      25   65250   65247      24   65253   65247      24   65253   65250      25
   65259   65256      24   65262   65256      24   65262   65259      25   65268
   65265      24   65271   65265      24   65271   65268      25   65277   65274
      24   65280   65274      24   65280   65277      25   65286   65283      24
   65289   65283      24   65289   65286      25   65295   65292      24   65298
   65292      24   65298   65295      25   65304   65301      24   65307   65301
      24   65307   65304      25   65313   65310      24   65316   65310      24
   65316   65313      25   65322   65319      24   65325   65319      24   65325
   65322      25   65331   65328      24   65334   65328      24   65334   65331
      25   65340   65337      24   65343   65337      24   65343   65340      25
   65349   65346      24   65352   65346      24   65352   65349      25   65358
   65355      24   65361   65355      24   65361   65358      25   65367   65364
      24   65370   65364      24   65370   65367      25   65376   65373      24
   65379   65373      24   65379   65376      25   65385   65382      24   65388
   65382      24   65388   65385      25   65394   65391      24   65397   65391
      24   65397   65394      25   65403   65400      24   65406   65400      24
   65406   65403      25   65412   65409      24   65415   65409      24   65415
   65412      25   65421   65418      24   65424   65418      24   65424   65421
      25   65430   65427      24   65433   65427      24   65433   65430      25
   65439   65436      24   65442   65436      24   65442   65439      25   65448
   65445      24   65451   65445      24   65451   65448      25   65457   65454
      24   65460   65454      24   65460   65457      25   65466   65463      24
   65469   65463      24   65469   65466      25   65475   65472      24   65478
   65472      24   65478   65475      25   65484   65481      24   65487   65481
      24   65487   65484      25   65493   65490      24   65496   65490      24
   65496   65493      25   65502   65499      24   65505   65499      24   65505
   65502      25   65511   65508      24   65514   65508      24   65514   65511
      25   65520   65517      24   65523   65517      24   65523   65520      25
   65529   65526      24   65532   65526      24   65532   65529      25   65538
   65535      24   65541   65535      24   65541   65538      25   65547   65544
      24   65550   65544      24   65550   65547      25   65556   65553      24
   65559   65553      24   65559   65556      25   65565   65562      24   65568
   65562      24   65568   65565      25   65574   65571      24   65577   65571
      24   65577   65574      25   65583   65580      24   65586   65580      24
   65586   65583      25   65592   65589      24   65595   65589      24   65595
   65592      25   65601   65598      24   65604   65598      24   65604   65601
      25   65610   65607      24   65613   65607      24   65613   65610      25
   65619   65616      24   65622   65616      24   65622   65619      25   65628
   65625      24   65631   65625      24   65631   65628      25   65637   65634
      24   65640   65634      24   65640   65637      25   65646   65643      24
   65649   65643      24   65649   65646      25   65655   65652      24   65658
   65652      24   65658   65655      25   65664   65661      24   65667   65661
      24   65667   65664      25   65673   65670      24   65676   65670      24
   65676   65673      25   65682   65679      24   65685   65679      24   65685
   65682      25   65691   65688      24   65694   65688      24   65694   65691
      25   65700   65697      24   65703   65697      24   65703   65700      25
   65709   65706      24   65712   65706      24   65712   65709      25   65718
   65715      24   65721   65715      24   65721   65718      25   65727   65724
      24   65730   65724      24   65730   65727      25   65736   65733      24
   65739   65733      24   65739   65736      25   65745   65742      24   65748
   65742      24   65748   65745      25   65754   65751      24   65757   65751
      24   65757   65754      25   65763   65760      24   65766   65760      24
   65766   65763      25   65772   65769      24   65775   65769      24   65775
   65772      25   65781   65778      24   65784   65778      24   65784   65781
      25   65790   65787      24   65793   65787      24   65793   65790      25
   65799   65796      24   65802   65796      24   65802   65799      25   65808
   65805      24   65811   65805      24   65811   65808      25   65817   65814
      24   65820   65814      24   65820   65817      25   65826   65823      24
   65829   65823      24   65829   65826      25   65835   65832      24   65838
   65832      24   65838   65835      25   65844   65841      24   65847   65841
      24   65847   65844      25   65853   65850      24   65856   65850      24
   65856   65853      25   65862   65859      24   65865   65859      24   65865
   65862      25   65871   65868      24   65874   65868      24   65874   65871
      25   65880   65877      24   65883   65877      24   65883   65880      25
   65889   65886      24   65892   65886      24   65892   65889      25   65898
   65895      24   65901   65895      24   65901   65898      25   65907   65904
      24   65910   65904      24   65910   65907      25   65916   65913      24
   65919   65913      24   65919   65916      25   65925   65922      24   65928
   65922      24   65928   65925      25   65934   65931      24   65937   65931
      24   65937   65934      25   65943   65940      24   65946   65940      24
   65946   65943      25   65952   65949      24   65955   65949      24   65955
   65952      25   65961   65958      24   65964   65958      24   65964   65961
      25   65970   65967      24   65973   65967      24   65973   65970      25
   65979   65976      24   65982   65976      24   65982   65979      25   65988
   65985      24   65991   65985      24   65991   65988      25   65997   65994
      24   66000   65994      24   66000   65997      25   66006   66003      24
   66009   66003      24   66009   66006      25   66015   66012      24   66018
   66012      24   66018   66015      25   66024   66021      24   66027   66021
      24   66027   66024      25   66033   66030      24   66036   66030      24
   66036   66033      25   66042   66039      24   66045   66039      24   66045
   66042      25   66051   66048      24   66054   66048      24   66054   66051
      25   66060   66057      24   66063   66057      24   66063   66060      25
   66069   66066      24   66072   66066      24   66072   66069      25   66078
   66075      24   66081   66075      24   66081   66078      25   66087   66084
      24   66090   66084      24   66090   66087      25   66096   66093      24
   66099   66093      24   66099   66096      25   66105   66102      24   66108
   66102      24   66108   66105      25   66114   66111      24   66117   66111
      24   66117   66114      25   66123   66120      24   66126   66120      24
   66126   66123      25   66132   66129      24   66135   66129      24   66135
   66132      25   66141   66138      24   66144   66138      24   66144   66141
      25   66150   66147      24   66153   66147      24   66153   66150      25
   66159   66156      24   66162   66156      24   66162   66159      25   66168
   66165      24   66171   66165      24   66171   66168      25   66177   66174
      24   66180   66174      24   66180   66177      25   66186   66183      24
   66189   66183      24   66189   66186      25   66195   66192      24   66198
   66192      24   66198   66195      25   66204   66201      24   66207   66201
      24   66207   66204      25   66213   66210      24   66216   66210      24
   66216   66213      25   66222   66219      24   66225   66219      24   66225
   66222      25   66231   66228      24   66234   66228      24   66234   66231
      25   66240   66237      24   66243   66237      24   66243   66240      25
   66249   66246      24   66252   66246      24   66252   66249      25   66258
   66255      24   66261   66255      24   66261   66258      25   66267   66264
      24   66270   66264      24   66270   66267      25   66276   66273      24
   66279   66273      24   66279   66276      25   66285   66282      24   66288
   66282      24   66288   66285      25   66294   66291      24   66297   66291
      24   66297   66294      25   66303   66300      24   66306   66300      24
   66306   66303      25   66312   66309      24   66315   66309      24   66315
   66312      25   66321   66318      24   66324   66318      24   66324   66321
      25   66330   66327      24   66333   66327      24   66333   66330      25
   66339   66336      24   66342   66336      24   66342   66339      25   66348
   66345      24   66351   66345      24   66351   66348      25   66357   66354
      24   66360   66354      24   66360   66357      25   66366   66363      24
   66369   66363      24   66369   66366      25   66375   66372      24   66378
   66372      24   66378   66375      25   66384   66381      24   66387   66381
      24   66387   66384      25   66393   66390      24   66396   66390      24
   66396   66393      25   66402   66399      24   66405   66399      24   66405
   66402      25   66411   66408      24   66414   66408      24   66414   66411
      25   66420   66417      24   66423   66417      24   66423   66420      25
   66429   66426      24   66432   66426      24   66432   66429      25   66438
   66435      24   66441   66435      24   66441   66438      25   66447   66444
      24   66450   66444      24   66450   66447      25   66456   66453      24
   66459   66453      24   66459   66456      25   66465   66462      24   66468
   66462      24   66468   66465      25   66474   66471      24   66477   66471
      24   66477   66474      25   66483   66480      24   66486   66480      24
   66486   66483      25   66492   66489      24   66495   66489      24   66495
   66492      25   66501   66498      24   66504   66498      24   66504   66501
      25   66510   66507      24   66513   66507      24   66513   66510      25
   66519   66516      24   66522   66516      24   66522   66519      25   66528
   66525      24   66531   66525      24   66531   66528      25   66537   66534
      24   66540   66534      24   66540   66537      25   66546   66543      24
   66549   66543      24   66549   66546      25   66555   66552      24   66558
   66552      24   66558   66555      25   66564   66561      24   66567   66561
      24   66567   66564      25   66573   66570      24   66576   66570      24
   66576   66573      25   66582   66579      24   66585   66579      24   66585
   66582      25   66591   66588      24   66594   66588      24   66594   66591
      25   66600   66597      24   66603   66597      24   66603   66600      25
   66609   66606      24   66612   66606      24   66612   66609      25   66618
   66615      24   66621   66615      24   66621   66618      25   66627   66624
      24   66630   66624      24   66630   66627      25   66636   66633      24
   66639   66633      24   66639   66636      25   66645   66642      24   66648
   66642      24   66648   66645      25   66654   66651      24   66657   66651
      24   66657   66654      25   66663   66660      24   66666   66660      24
   66666   66663      25   66672   66669      24   66675   66669      24   66675
   66672      25   66681   66678      24   66684   66678      24   66684   66681
      25   66690   66687      24   66693   66687      24   66693   66690      25
   66699   66696      24   66702   66696      24   66702   66699      25   66708
   66705      24   66711   66705      24   66711   66708      25   66717   66714
      24   66720   66714      24   66720   66717      25   66726   66723      24
   66729   66723      24   66729   66726      25   66735   66732      24   66738
   66732      24   66738   66735      25   66744   66741      24   66747   66741
      24   66747   66744      25   66753   66750      24   66756   66750      24
   66756   66753      25   66762   66759      24   66765   66759      24   66765
   66762      25   66771   66768      24   66774   66768      24   66774   66771
      25   66780   66777      24   66783   66777      24   66783   66780      25
   66789   66786      24   66792   66786      24   66792   66789      25   66798
   66795      24   66801   66795      24   66801   66798      25   66807   66804
      24   66810   66804      24   66810   66807      25   66816   66813      24
   66819   66813      24   66819   66816      25   66825   66822      24   66828
   66822      24   66828   66825      25   66834   66831      24   66837   66831
      24   66837   66834      25   66843   66840      24   66846   66840      24
   66846   66843      25   66852   66849      24   66855   66849      24   66855
   66852      25   66861   66858      24   66864   66858      24   66864   66861
      25   66870   66867      24   66873   66867      24   66873   66870      25
   66879   66876      24   66882   66876      24   66882   66879      25   66888
   66885      24   66891   66885      24   66891   66888      25   66897   66894
      24   66900   66894      24   66900   66897      25   66906   66903      24
   66909   66903      24   66909   66906      25   66915   66912      24   66918
   66912      24   66918   66915      25   66924   66921      24   66927   66921
      24   66927   66924      25   66933   66930      24   66936   66930      24
   66936   66933      25   66942   66939      24   66945   66939      24   66945
   66942      25   66951   66948      24   66954   66948      24   66954   66951
      25   66960   66957      24   66963   66957      24   66963   66960      25
   66969   66966      24   66972   66966      24   66972   66969      25   66978
   66975      24   66981   66975      24   66981   66978      25   66987   66984
      24   66990   66984      24   66990   66987      25   66996   66993      24
   66999   66993      24   66999   66996      25   67005   67002      24   67008
   67002      24   67008   67005      25   67014   67011      24   67017   67011
      24   67017   67014      25   67023   67020      24   67026   67020      24
   67026   67023      25   67032   67029      24   67035   67029      24   67035
   67032      25   67041   67038      24   67044   67038      24   67044   67041
      25   67050   67047      24   67053   67047      24   67053   67050      25
   67059   67056      24   67062   67056      24   67062   67059      25   67068
   67065      24   67071   67065      24   67071   67068      25   67077   67074
      24   67080   67074      24   67080   67077      25   67086   67083      24
   67089   67083      24   67089   67086      25   67095   67092      24   67098
   67092      24   67098   67095      25   67104   67101      24   67107   67101
      24   67107   67104      25   67113   67110      24   67116   67110      24
   67116   67113      25   67122   67119      24   67125   67119      24   67125
   67122      25   67131   67128      24   67134   67128      24   67134   67131
      25   67140   67137      24   67143   67137      24   67143   67140      25
   67149   67146      24   67152   67146      24   67152   67149      25   67158
   67155      24   67161   67155      24   67161   67158      25   67167   67164
      24   67170   67164      24   67170   67167      25   67176   67173      24
   67179   67173      24   67179   67176      25   67185   67182      24   67188
   67182      24   67188   67185      25   67194   67191      24   67197   67191
      24   67197   67194      25   67203   67200      24   67206   67200      24
   67206   67203      25   67212   67209      24   67215   67209      24   67215
   67212      25   67221   67218      24   67224   67218      24   67224   67221
      25   67230   67227      24   67233   67227      24   67233   67230      25
   67239   67236      24   67242   67236      24   67242   67239      25   67248
   67245      24   67251   67245      24   67251   67248      25   67257   67254
      24   67260   67254      24   67260   67257      25   67266   67263      24
   67269   67263      24   67269   67266      25   67275   67272      24   67278
   67272      24   67278   67275      25   67284   67281      24   67287   67281
      24   67287   67284      25   67293   67290      24   67296   67290      24
   67296   67293      25   67302   67299      24   67305   67299      24   67305
   67302      25   67311   67308      24   67314   67308      24   67314   67311
      25   67320   67317      24   67323   67317      24   67323   67320      25
   67329   67326      24   67332   67326      24   67332   67329      25   67338
   67335      24   67341   67335      24   67341   67338      25   67347   67344
      24   67350   67344      24   67350   67347      25   67356   67353      24
   67359   67353      24   67359   67356      25   67365   67362      24   67368
   67362      24   67368   67365      25   67374   67371      24   67377   67371
      24   67377   67374      25   67383   67380      24   67386   67380      24
   67386   67383      25   67392   67389      24   67395   67389      24   67395
   67392      25   67401   67398      24   67404   67398      24   67404   67401
      25   67410   67407      24   67413   67407      24   67413   67410      25
   67419   67416      24   67422   67416      24   67422   67419      25   67428
   67425      24   67431   67425      24   67431   67428      25   67437   67434
      24   67440   67434      24   67440   67437      25   67446   67443      24
   67449   67443      24   67449   67446      25   67455   67452      24   67458
   67452      24   67458   67455      25   67464   67461      24   67467   67461
      24   67467   67464      25   67473   67470      24   67476   67470      24
   67476   67473      25   67482   67479      24   67485   67479      24   67485
   67482      25   67491   67488      24   67494   67488      24   67494   67491
      25   67500   67497      24   67503   67497      24   67503   67500      25
   67509   67506      24   67512   67506      24   67512   67509      25   67518
   67515      24   67521   67515      24   67521   67518      25   67527   67524
      24   67530   67524      24   67530   67527      25   67536   67533      24
   67539   67533      24   67539   67536      25   67545   67542      24   67548
   67542      24   67548   67545      25   67554   67551      24   67557   67551
      24   67557   67554      25   67563   67560      24   67566   67560      24
   67566   67563      25   67572   67569      24   67575   67569      24   67575
   67572      25   67581   67578      24   67584   67578      24   67584   67581
      25   67590   67587      24   67593   67587      24   67593   67590      25
   67599   67596      24   67602   67596      24   67602   67599      25   67608
   67605      24   67611   67605      24   67611   67608      25   67617   67614
      24   67620   67614      24   67620   67617      25   67626   67623      24
   67629   67623      24   67629   67626      25   67635   67632      24   67638
   67632      24   67638   67635      25   67644   67641      24   67647   67641
      24   67647   67644      25   67653   67650      24   67656   67650      24
   67656   67653      25   67662   67659      24   67665   67659      24   67665
   67662      25   67671   67668      24   67674   67668      24   67674   67671
      25   67680   67677      24   67683   67677      24   67683   67680      25
   67689   67686      24   67692   67686      24   67692   67689      25   67698
   67695      24   67701   67695      24   67701   67698      25   67707   67704
      24   67710   67704      24   67710   67707      25   67716   67713      24
   67719   67713      24   67719   67716      25   67725   67722      24   67728
   67722      24   67728   67725      25   67734   67731      24   67737   67731
      24   67737   67734      25   67743   67740      24   67746   67740      24
   67746   67743      25   67752   67749      24   67755   67749      24   67755
   67752      25   67761   67758      24   67764   67758      24   67764   67761
      25   67770   67767      24   67773   67767      24   67773   67770      25
   67779   67776      24   67782   67776      24   67782   67779      25   67788
   67785      24   67791   67785      24   67791   67788      25   67797   67794
      24   67800   67794      24   67800   67797      25   67806   67803      24
   67809   67803      24   67809   67806      25   67815   67812      24   67818
   67812      24   67818   67815      25   67824   67821      24   67827   67821
      24   67827   67824      25   67833   67830      24   67836   67830      24
   67836   67833      25   67842   67839      24   67845   67839      24   67845
   67842      25   67851   67848      24   67854   67848      24   67854   67851
      25   67860   67857      24   67863   67857      24   67863   67860      25
   67869   67866      24   67872   67866      24   67872   67869      25   67878
   67875      24   67881   67875      24   67881   67878      25   67887   67884
      24   67890   67884      24   67890   67887      25   67896   67893      24
   67899   67893      24   67899   67896      25   67905   67902      24   67908
   67902      24   67908   67905      25   67914   67911      24   67917   67911
      24   67917   67914      25   67923   67920      24   67926   67920      24
   67926   67923      25   67932   67929      24   67935   67929      24   67935
   67932      25   67941   67938      24   67944   67938      24   67944   67941
      25   67950   67947      24   67953   67947      24   67953   67950      25
   67959   67956      24   67962   67956      24   67962   67959      25   67968
   67965      24   67971   67965      24   67971   67968      25   67977   67974
      24   67980   67974      24   67980   67977      25   67986   67983      24
   67989   67983      24   67989   67986      25   67995   67992      24   67998
   67992      24   67998   67995      25   68004   68001      24   68007   68001
      24   68007   68004      25   68013   68010      24   68016   68010      24
   68016   68013      25   68022   68019      24   68025   68019      24   68025
   68022      25   68031   68028      24   68034   68028      24   68034   68031
      25   68040   68037      24   68043   68037      24   68043   68040      25
   68049   68046      24   68052   68046      24   68052   68049      25   68058
   68055      24   68061   68055      24   68061   68058      25   68067   68064
      24   68070   68064      24   68070   68067      25   68076   68073      24
   68079   68073      24   68079   68076      25   68085   68082      24   68088
   68082      24   68088   68085      25   68094   68091      24   68097   68091
      24   68097   68094      25   68103   68100      24   68106   68100      24
   68106   68103      25   68112   68109      24   68115   68109      24   68115
   68112      25   68121   68118      24   68124   68118      24   68124   68121
      25   68130   68127      24   68133   68127      24   68133   68130      25
   68139   68136      24   68142   68136      24   68142   68139      25   68148
   68145      24   68151   68145      24   68151   68148      25   68157   68154
      24   68160   68154      24   68160   68157      25   68166   68163      24
   68169   68163      24   68169   68166      25   68175   68172      24   68178
   68172      24   68178   68175      25   68184   68181      24   68187   68181
      24   68187   68184      25   68193   68190      24   68196   68190      24
   68196   68193      25   68202   68199      24   68205   68199      24   68205
   68202      25   68211   68208      24   68214   68208      24   68214   68211
      25   68220   68217      24   68223   68217      24   68223   68220      25
   68229   68226      24   68232   68226      24   68232   68229      25   68238
   68235      24   68241   68235      24   68241   68238      25   68247   68244
      24   68250   68244      24   68250   68247      25   68256   68253      24
   68259   68253      24   68259   68256      25   68265   68262      24   68268
   68262      24   68268   68265      25   68274   68271      24   68277   68271
      24   68277   68274      25   68283   68280      24   68286   68280      24
   68286   68283      25   68292   68289      24   68295   68289      24   68295
   68292      25   68301   68298      24   68304   68298      24   68304   68301
      25   68310   68307      24   68313   68307      24   68313   68310      25
   68319   68316      24   68322   68316      24   68322   68319      25   68328
   68325      24   68331   68325      24   68331   68328      25   68337   68334
      24   68340   68334      24   68340   68337      25   68346   68343      24
   68349   68343      24   68349   68346      25   68355   68352      24   68358
   68352      24   68358   68355      25   68364   68361      24   68367   68361
      24   68367   68364      25   68373   68370      24   68376   68370      24
   68376   68373      25   68382   68379      24   68385   68379      24   68385
   68382      25   68391   68388      24   68394   68388      24   68394   68391
      25   68400   68397      24   68403   68397      24   68403   68400      25
   68409   68406      24   68412   68406      24   68412   68409      25   68418
   68415      24   68421   68415      24   68421   68418      25   68427   68424
      24   68430   68424      24   68430   68427      25   68436   68433      24
   68439   68433      24   68439   68436      25   68445   68442      24   68448
   68442      24   68448   68445      25   68454   68451      24   68457   68451
      24   68457   68454      25   68463   68460      24   68466   68460      24
   68466   68463      25   68472   68469      24   68475   68469      24   68475
   68472      25   68481   68478      24   68484   68478      24   68484   68481
      25   68490   68487      24   68493   68487      24   68493   68490      25
   68499   68496      24   68502   68496      24   68502   68499      25   68508
   68505      24   68511   68505      24   68511   68508      25   68517   68514
      24   68520   68514      24   68520   68517      25   68526   68523      24
   68529   68523      24   68529   68526      25   68535   68532      24   68538
   68532      24   68538   68535      25   68544   68541      24   68547   68541
      24   68547   68544      25   68553   68550      24   68556   68550      24
   68556   68553      25   68562   68559      24   68565   68559      24   68565
   68562      25   68571   68568      24   68574   68568      24   68574   68571
      25   68580   68577      24   68583   68577      24   68583   68580      25
   68589   68586      24   68592   68586      24   68592   68589      25   68598
   68595      24   68601   68595      24   68601   68598      25   68607   68604
      24   68610   68604      24   68610   68607      25   68616   68613      24
   68619   68613      24   68619   68616      25   68625   68622      24   68628
   68622      24   68628   68625      25   68634   68631      24   68637   68631
      24   68637   68634      25   68643   68640      24   68646   68640      24
   68646   68643      25   68652   68649      24   68655   68649      24   68655
   68652      25   68661   68658      24   68664   68658      24   68664   68661
      25   68670   68667      24   68673   68667      24   68673   68670      25
   68679   68676      24   68682   68676      24   68682   68679      25   68688
   68685      24   68691   68685      24   68691   68688      25   68697   68694
      24   68700   68694      24   68700   68697      25   68706   68703      24
   68709   68703      24   68709   68706      25   68715   68712      24   68718
   68712      24   68718   68715      25   68724   68721      24   68727   68721
      24   68727   68724      25   68733   68730      24   68736   68730      24
   68736   68733      25   68742   68739      24   68745   68739      24   68745
   68742      25   68751   68748      24   68754   68748      24   68754   68751
      25   68760   68757      24   68763   68757      24   68763   68760      25
   68769   68766      24   68772   68766      24   68772   68769      25   68778
   68775      24   68781   68775      24   68781   68778      25   68787   68784
      24   68790   68784      24   68790   68787      25   68796   68793      24
   68799   68793      24   68799   68796      25   68805   68802      24   68808
   68802      24   68808   68805      25   68814   68811      24   68817   68811
      24   68817   68814      25   68823   68820      24   68826   68820      24
   68826   68823      25   68832   68829      24   68835   68829      24   68835
   68832      25   68841   68838      24   68844   68838      24   68844   68841
      25   68850   68847      24   68853   68847      24   68853   68850      25
   68859   68856      24   68862   68856      24   68862   68859      25   68868
   68865      24   68871   68865      24   68871   68868      25   68877   68874
      24   68880   68874      24   68880   68877      25   68886   68883      24
   68889   68883      24   68889   68886      25   68895   68892      24   68898
   68892      24   68898   68895      25   68904   68901      24   68907   68901
      24   68907   68904      25   68913   68910      24   68916   68910      24
   68916   68913      25   68922   68919      24   68925   68919      24   68925
   68922      25   68931   68928      24   68934   68928      24   68934   68931
      25   68940   68937      24   68943   68937      24   68943   68940      25
   68949   68946      24   68952   68946      24   68952   68949      25   68958
   68955      24   68961   68955      24   68961   68958      25   68967   68964
      24   68970   68964      24   68970   68967      25   68976   68973      24
   68979   68973      24   68979   68976      25   68985   68982      24   68988
   68982      24   68988   68985      25   68994   68991      24   68997   68991
      24   68997   68994      25   69003   69000      24   69006   69000      24
   69006   69003      25   69012   69009      24   69015   69009      24   69015
   69012      25   69021   69018      24   69024   69018      24   69024   69021
      25   69030   69027      24   69033   69027      24   69033   69030      25
   69039   69036      24   69042   69036      24   69042   69039      25   69048
   69045      24   69051   69045      24   69051   69048      25   69057   69054
      24   69060   69054      24   69060   69057      25   69066   69063      24
   69069   69063      24   69069   69066      25   69075   69072      24   69078
   69072      24   69078   69075      25   69084   69081      24   69087   69081
      24   69087   69084      25   69093   69090      24   69096   69090      24
   69096   69093      25   69102   69099      24   69105   69099      24   69105
   69102      25   69111   69108      24   69114   69108      24   69114   69111
      25   69120   69117      24   69123   69117      24   69123   69120      25
   69129   69126      24   69132   69126      24   69132   69129      25   69138
   69135      24   69141   69135      24   69141   69138      25   69147   69144
      24   69150   69144      24   69150   69147      25   69156   69153      24
   69159   69153      24   69159   69156      25   69165   69162      24   69168
   69162      24   69168   69165      25   69174   69171      24   69177   69171
      24   69177   69174      25   69183   69180      24   69186   69180      24
   69186   69183      25   69192   69189      24   69195   69189      24   69195
   69192      25   69201   69198      24   69204   69198      24   69204   69201
      25   69210   69207      24   69213   69207      24   69213   69210      25
   69219   69216      24   69222   69216      24   69222   69219      25   69228
   69225      24   69231   69225      24   69231   69228      25   69237   69234
      24   69240   69234      24   69240   69237      25   69246   69243      24
   69249   69243      24   69249   69246      25   69255   69252      24   69258
   69252      24   69258   69255      25   69264   69261      24   69267   69261
      24   69267   69264      25   69273   69270      24   69276   69270      24
   69276   69273      25   69282   69279      24   69285   69279      24   69285
   69282      25   69291   69288      24   69294   69288      24   69294   69291
      25   69300   69297      24   69303   69297      24   69303   69300      25
   69309   69306      24   69312   69306      24   69312   69309      25   69318
   69315      24   69321   69315      24   69321   69318      25   69327   69324
      24   69330   69324      24   69330   69327      25   69336   69333      24
   69339   69333      24   69339   69336      25   69345   69342      24   69348
   69342      24   69348   69345      25   69354   69351      24   69357   69351
      24   69357   69354      25   69363   69360      24   69366   69360      24
   69366   69363      25   69372   69369      24   69375   69369      24   69375
   69372      25   69381   69378      24   69384   69378      24   69384   69381
      25   69390   69387      24   69393   69387      24   69393   69390      25
   69399   69396      24   69402   69396      24   69402   69399      25   69408
   69405      24   69411   69405      24   69411   69408      25   69417   69414
      24   69420   69414      24   69420   69417      25   69426   69423      24
   69429   69423      24   69429   69426      25   69435   69432      24   69438
   69432      24   69438   69435      25   69444   69441      24   69447   69441
      24   69447   69444      25   69453   69450      24   69456   69450      24
   69456   69453      25   69462   69459      24   69465   69459      24   69465
   69462      25   69471   69468      24   69474   69468      24   69474   69471
      25   69480   69477      24   69483   69477      24   69483   69480      25
   69489   69486      24   69492   69486      24   69492   69489      25   69498
   69495      24   69501   69495      24   69501   69498      25   69507   69504
      24   69510   69504      24   69510   69507      25   69516   69513      24
   69519   69513      24   69519   69516      25   69525   69522      24   69528
   69522      24   69528   69525      25   69534   69531      24   69537   69531
      24   69537   69534      25   69543   69540      24   69546   69540      24
   69546   69543      25   69552   69549      24   69555   69549      24   69555
   69552      25   69561   69558      24   69564   69558      24   69564   69561
      25   69570   69567      24   69573   69567      24   69573   69570      25
   69579   69576      24   69582   69576      24   69582   69579      25   69588
   69585      24   69591   69585      24   69591   69588      25   69597   69594
      24   69600   69594      24   69600   69597      25   69606   69603      24
   69609   69603      24   69609   69606      25   69615   69612      24   69618
   69612      24   69618   69615      25   69624   69621      24   69627   69621
      24   69627   69624      25   69633   69630      24   69636   69630      24
   69636   69633      25   69642   69639      24   69645   69639      24   69645
   69642      25   69651   69648      24   69654   69648      24   69654   69651
      25   69660   69657      24   69663   69657      24   69663   69660      25
   69669   69666      24   69672   69666      24   69672   69669      25   69678
   69675      24   69681   69675      24   69681   69678      25   69687   69684
      24   69690   69684      24   69690   69687      25   69696   69693      24
   69699   69693      24   69699   69696      25   69705   69702      24   69708
   69702      24   69708   69705      25   69714   69711      24   69717   69711
      24   69717   69714      25   69723   69720      24   69726   69720      24
   69726   69723      25   69732   69729      24   69735   69729      24   69735
   69732      25   69741   69738      24   69744   69738      24   69744   69741
      25   69750   69747      24   69753   69747      24   69753   69750      25
   69759   69756      24   69762   69756      24   69762   69759      25   69768
   69765      24   69771   69765      24   69771   69768      25   69777   69774
      24   69780   69774      24   69780   69777      25   69786   69783      24
   69789   69783      24   69789   69786      25   69795   69792      24   69798
   69792      24   69798   69795      25   69804   69801      24   69807   69801
      24   69807   69804      25   69813   69810      24   69816   69810      24
   69816   69813      25   69822   69819      24   69825   69819      24   69825
   69822      25   69831   69828      24   69834   69828      24   69834   69831
      25   69840   69837      24   69843   69837      24   69843   69840      25
   69849   69846      24   69852   69846      24   69852   69849      25   69858
   69855      24   69861   69855      24   69861   69858      25   69867   69864
      24   69870   69864      24   69870   69867      25   69876   69873      24
   69879   69873      24   69879   69876      25   69885   69882      24   69888
   69882      24   69888   69885      25   69894   69891      24   69897   69891
      24   69897   69894      25   69903   69900      24   69906   69900      24
   69906   69903      25   69912   69909      24   69915   69909      24   69915
   69912      25   69921   69918      24   69924   69918      24   69924   69921
      25   69930   69927      24   69933   69927      24   69933   69930      25
   69939   69936      24   69942   69936      24   69942   69939      25   69948
   69945      24   69951   69945      24   69951   69948      25   69957   69954
      24   69960   69954      24   69960   69957      25   69966   69963      24
   69969   69963      24   69969   69966      25   69975   69972      24   69978
   69972      24   69978   69975      25   69984   69981      24   69987   69981
      24   69987   69984      25   69993   69990      24   69996   69990      24
   69996   69993      25   70002   69999      24   70005   69999      24   70005
   70002      25   70011   70008      24   70014   70008      24   70014   70011
      25   70020   70017      24   70023   70017      24   70023   70020      25
   70029   70026      24   70032   70026      24   70032   70029      25   70038
   70035      24   70041   70035      24   70041   70038      25   70047   70044
      24   70050   70044      24   70050   70047      25   70056   70053      24
   70059   70053      24   70059   70056      25   70065   70062      24   70068
   70062      24   70068   70065      25   70074   70071      24   70077   70071
      24   70077   70074      25   70083   70080      24   70086   70080      24
   70086   70083      25   70092   70089      24   70095   70089      24   70095
   70092      25   70101   70098      24   70104   70098      24   70104   70101
      25   70110   70107      24   70113   70107      24   70113   70110      25
   70119   70116      24   70122   70116      24   70122   70119      25   70128
   70125      24   70131   70125      24   70131   70128      25   70137   70134
      24   70140   70134      24   70140   70137      25   70146   70143      24
   70149   70143      24   70149   70146      25   70155   70152      24   70158
   70152      24   70158   70155      25   70164   70161      24   70167   70161
      24   70167   70164      25   70173   70170      24   70176   70170      24
   70176   70173      25   70182   70179      24   70185   70179      24   70185
   70182      25   70191   70188      24   70194   70188      24   70194   70191
      25   70200   70197      24   70203   70197      24   70203   70200      25
   70209   70206      24   70212   70206      24   70212   70209      25   70218
   70215      24   70221   70215      24   70221   70218      25   70227   70224
      24   70230   70224      24   70230   70227      25   70236   70233      24
   70239   70233      24   70239   70236      25   70245   70242      24   70248
   70242      24   70248   70245      25   70254   70251      24   70257   70251
      24   70257   70254      25   70263   70260      24   70266   70260      24
   70266   70263      25   70272   70269      24   70275   70269      24   70275
   70272      25   70281   70278      24   70284   70278      24   70284   70281
      25   70290   70287      24   70293   70287      24   70293   70290      25
   70299   70296      24   70302   70296      24   70302   70299      25   70308
   70305      24   70311   70305      24   70311   70308      25   70317   70314
      24   70320   70314      24   70320   70317      25   70326   70323      24
   70329   70323      24   70329   70326      25   70335   70332      24   70338
   70332      24   70338   70335      25   70344   70341      24   70347   70341
      24   70347   70344      25   70353   70350      24   70356   70350      24
   70356   70353      25   70362   70359      24   70365   70359      24   70365
   70362      25   70371   70368      24   70374   70368      24   70374   70371
      25   70380   70377      24   70383   70377      24   70383   70380      25
   70389   70386      24   70392   70386      24   70392   70389      25   70398
   70395      24   70401   70395      24   70401   70398      25   70407   70404
      24   70410   70404      24   70410   70407      25   70416   70413      24
   70419   70413      24   70419   70416      25   70425   70422      24   70428
   70422      24   70428   70425      25   70434   70431      24   70437   70431
      24   70437   70434      25   70443   70440      24   70446   70440      24
   70446   70443      25   70452   70449      24   70455   70449      24   70455
   70452      25   70461   70458      24   70464   70458      24   70464   70461
      25   70470   70467      24   70473   70467      24   70473   70470      25
   70479   70476      24   70482   70476      24   70482   70479      25   70488
   70485      24   70491   70485      24   70491   70488      25   70497   70494
      24   70500   70494      24   70500   70497      25   70506   70503      24
   70509   70503      24   70509   70506      25   70515   70512      24   70518
   70512      24   70518   70515      25   70524   70521      24   70527   70521
      24   70527   70524      25   70533   70530      24   70536   70530      24
   70536   70533      25   70542   70539      24   70545   70539      24   70545
   70542      25   70551   70548      24   70554   70548      24   70554   70551
      25   70560   70557      24   70563   70557      24   70563   70560      25
   70569   70566      24   70572   70566      24   70572   70569      25   70578
   70575      24   70581   70575      24   70581   70578      25   70587   70584
      24   70590   70584      24   70590   70587      25   70596   70593      24
   70599   70593      24   70599   70596      25   70605   70602      24   70608
   70602      24   70608   70605      25   70614   70611      24   70617   70611
      24   70617   70614      25   70623   70620      24   70626   70620      24
   70626   70623      25   70632   70629      24   70635   70629      24   70635
   70632      25   70641   70638      24   70644   70638      24   70644   70641
      25   70650   70647      24   70653   70647      24   70653   70650      25
   70659   70656      24   70662   70656      24   70662   70659      25   70668
   70665      24   70671   70665      24   70671   70668      25   70677   70674
      24   70680   70674      24   70680   70677      25   70686   70683      24
   70689   70683      24   70689   70686      25   70695   70692      24   70698
   70692      24   70698   70695      25   70704   70701      24   70707   70701
      24   70707   70704      25   70713   70710      24   70716   70710      24
   70716   70713      25   70722   70719      24   70725   70719      24   70725
   70722      25   70731   70728      24   70734   70728      24   70734   70731
      25   70740   70737      24   70743   70737      24   70743   70740      25
   70749   70746      24   70752   70746      24   70752   70749      25   70758
   70755      24   70761   70755      24   70761   70758      25   70767   70764
      24   70770   70764      24   70770   70767      25   70776   70773      24
   70779   70773      24   70779   70776      25   70785   70782      24   70788
   70782      24   70788   70785      25   70794   70791      24   70797   70791
      24   70797   70794      25   70803   70800      24   70806   70800      24
   70806   70803      25   70812   70809      24   70815   70809      24   70815
   70812      25   70821   70818      24   70824   70818      24   70824   70821
      25   70830   70827      24   70833   70827      24   70833   70830      25
   70839   70836      24   70842   70836      24   70842   70839      25   70848
   70845      24   70851   70845      24   70851   70848      25   70857   70854
      24   70860   70854      24   70860   70857      25   70866   70863      24
   70869   70863      24   70869   70866      25   70875   70872      24   70878
   70872      24   70878   70875      25   70884   70881      24   70887   70881
      24   70887   70884      25   70893   70890      24   70896   70890      24
   70896   70893      25   70902   70899      24   70905   70899      24   70905
   70902      25   70911   70908      24   70914   70908      24   70914   70911
      25   70920   70917      24   70923   70917      24   70923   70920      25
   70929   70926      24   70932   70926      24   70932   70929      25   70938
   70935      24   70941   70935      24   70941   70938      25   70947   70944
      24   70950   70944      24   70950   70947      25   70956   70953      24
   70959   70953      24   70959   70956      25   70965   70962      24   70968
   70962      24   70968   70965      25   70974   70971      24   70977   70971
      24   70977   70974      25   70983   70980      24   70986   70980      24
   70986   70983      25   70992   70989      24   70995   70989      24   70995
   70992      25   71001   70998      24   71004   70998      24   71004   71001
      25   71010   71007      24   71013   71007      24   71013   71010      25
   71019   71016      24   71022   71016      24   71022   71019      25   71028
   71025      24   71031   71025      24   71031   71028      25   71037   71034
      24   71040   71034      24   71040   71037      25   71046   71043      24
   71049   71043      24   71049   71046      25   71055   71052      24   71058
   71052      24   71058   71055      25   71064   71061      24   71067   71061
      24   71067   71064      25   71073   71070      24   71076   71070      24
   71076   71073      25   71082   71079      24   71085   71079      24   71085
   71082      25   71091   71088      24   71094   71088      24   71094   71091
      25   71100   71097      24   71103   71097      24   71103   71100      25
   71109   71106      24   71112   71106      24   71112   71109      25   71118
   71115      24   71121   71115      24   71121   71118      25   71127   71124
      24   71130   71124      24   71130   71127      25   71136   71133      24
   71139   71133      24   71139   71136      25   71145   71142      24   71148
   71142      24   71148   71145      25   71154   71151      24   71157   71151
      24   71157   71154      25   71163   71160      24   71166   71160      24
   71166   71163      25   71172   71169      24   71175   71169      24   71175
   71172      25   71181   71178      24   71184   71178      24   71184   71181
      25   71190   71187      24   71193   71187      24   71193   71190      25
   71199   71196      24   71202   71196      24   71202   71199      25   71208
   71205      24   71211   71205      24   71211   71208      25   71217   71214
      24   71220   71214      24   71220   71217      25   71226   71223      24
   71229   71223      24   71229   71226      25   71235   71232      24   71238
   71232      24   71238   71235      25   71244   71241      24   71247   71241
      24   71247   71244      25   71253   71250      24   71256   71250      24
   71256   71253      25   71262   71259      24   71265   71259      24   71265
   71262      25   71271   71268      24   71274   71268      24   71274   71271
      25   71280   71277      24   71283   71277      24   71283   71280      25
   71289   71286      24   71292   71286      24   71292   71289      25   71298
   71295      24   71301   71295      24   71301   71298      25   71307   71304
      24   71310   71304      24   71310   71307      25   71316   71313      24
   71319   71313      24   71319   71316      25   71325   71322      24   71328
   71322      24   71328   71325      25   71334   71331      24   71337   71331
      24   71337   71334      25   71343   71340      24   71346   71340      24
   71346   71343      25   71352   71349      24   71355   71349      24   71355
   71352      25   71361   71358      24   71364   71358      24   71364   71361
      25   71370   71367      24   71373   71367      24   71373   71370      25
   71379   71376      24   71382   71376      24   71382   71379      25   71388
   71385      24   71391   71385      24   71391   71388      25   71397   71394
      24   71400   71394      24   71400   71397      25   71406   71403      24
   71409   71403      24   71409   71406      25   71415   71412      24   71418
   71412      24   71418   71415      25   71424   71421      24   71427   71421
      24   71427   71424      25   71433   71430      24   71436   71430      24
   71436   71433      25   71442   71439      24   71445   71439      24   71445
   71442      25   71451   71448      24   71454   71448      24   71454   71451
      25   71460   71457      24   71463   71457      24   71463   71460      25
   71469   71466      24   71472   71466      24   71472   71469      25   71478
   71475      24   71481   71475      24   71481   71478      25   71487   71484
      24   71490   71484      24   71490   71487      25   71496   71493      24
   71499   71493      24   71499   71496      25   71505   71502      24   71508
   71502      24   71508   71505      25   71514   71511      24   71517   71511
      24   71517   71514      25   71523   71520      24   71526   71520      24
   71526   71523      25   71532   71529      24   71535   71529      24   71535
   71532      25   71541   71538      24   71544   71538      24   71544   71541
      25   71550   71547      24   71553   71547      24   71553   71550      25
   71559   71556      24   71562   71556      24   71562   71559      25   71568
   71565      24   71571   71565      24   71571   71568      25   71577   71574
      24   71580   71574      24   71580   71577      25   71586   71583      24
   71589   71583      24   71589   71586      25   71595   71592      24   71598
   71592      24   71598   71595      25   71604   71601      24   71607   71601
      24   71607   71604      25   71613   71610      24   71616   71610      24
   71616   71613      25   71622   71619      24   71625   71619      24   71625
   71622      25   71631   71628      24   71634   71628      24   71634   71631
      25   71640   71637      24   71643   71637      24   71643   71640      25
   71649   71646      24   71652   71646      24   71652   71649      25   71658
   71655      24   71661   71655      24   71661   71658      25   71667   71664
      24   71670   71664      24   71670   71667      25   71676   71673      24
   71679   71673      24   71679   71676      25   71685   71682      24   71688
   71682      24   71688   71685      25   71694   71691      24   71697   71691
      24   71697   71694      25   71703   71700      24   71706   71700      24
   71706   71703      25   71712   71709      24   71715   71709      24   71715
   71712      25   71721   71718      24   71724   71718      24   71724   71721
      25   71730   71727      24   71733   71727      24   71733   71730      25
   71739   71736      24   71742   71736      24   71742   71739      25   71748
   71745      24   71751   71745      24   71751   71748      25   71757   71754
      24   71760   71754      24   71760   71757      25   71766   71763      24
   71769   71763      24   71769   71766      25   71775   71772      24   71778
   71772      24   71778   71775      25   71784   71781      24   71787   71781
      24   71787   71784      25   71793   71790      24   71796   71790      24
   71796   71793      25   71802   71799      24   71805   71799      24   71805
   71802      25   71811   71808      24   71814   71808      24   71814   71811
      25   71820   71817      24   71823   71817      24   71823   71820      25
   71829   71826      24   71832   71826      24   71832   71829      25   71838
   71835      24   71841   71835      24   71841   71838      25   71847   71844
      24   71850   71844      24   71850   71847      25   71856   71853      24
   71859   71853      24   71859   71856      25   71865   71862      24   71868
   71862      24   71868   71865      25   71874   71871      24   71877   71871
      24   71877   71874      25   71883   71880      24   71886   71880      24
   71886   71883      25   71892   71889      24   71895   71889      24   71895
   71892      25   71901   71898      24   71904   71898      24   71904   71901
      25   71910   71907      24   71913   71907      24   71913   71910      25
   71919   71916      24   71922   71916      24   71922   71919      25   71928
   71925      24   71931   71925      24   71931   71928      25   71937   71934
      24   71940   71934      24   71940   71937      25   71946   71943      24
   71949   71943      24   71949   71946      25   71955   71952      24   71958
   71952      24   71958   71955      25   71964   71961      24   71967   71961
      24   71967   71964      25   71973   71970      24   71976   71970      24
   71976   71973      25   71982   71979      24   71985   71979      24   71985
   71982      25   71991   71988      24   71994   71988      24   71994   71991
      25   72000   71997      24   72003   71997      24   72003   72000      25
   72009   72006      24   72012   72006      24   72012   72009      25   72018
   72015      24   72021   72015      24   72021   72018      25   72027   72024
      24   72030   72024      24   72030   72027      25   72036   72033      24
   72039   72033      24   72039   72036      25   72045   72042      24   72048
   72042      24   72048   72045      25   72054   72051      24   72057   72051
      24   72057   72054      25   72063   72060      24   72066   72060      24
   72066   72063      25   72072   72069      24   72075   72069      24   72075
   72072      25   72081   72078      24   72084   72078      24   72084   72081
      25   72090   72087      24   72093   72087      24   72093   72090      25
   72099   72096      24   72102   72096      24   72102   72099      25   72108
   72105      24   72111   72105      24   72111   72108      25   72117   72114
      24   72120   72114      24   72120   72117      25   72126   72123      24
   72129   72123      24   72129   72126      25   72135   72132      24   72138
   72132      24   72138   72135      25   72144   72141      24   72147   72141
      24   72147   72144      25   72153   72150      24   72156   72150      24
   72156   72153      25   72162   72159      24   72165   72159      24   72165
   72162      25   72171   72168      24   72174   72168      24   72174   72171
      25   72180   72177      24   72183   72177      24   72183   72180      25
   72189   72186      24   72192   72186      24   72192   72189      25   72198
   72195      24   72201   72195      24   72201   72198      25   72207   72204
      24   72210   72204      24   72210   72207      25   72216   72213      24
   72219   72213      24   72219   72216      25   72225   72222      24   72228
   72222      24   72228   72225      25   72234   72231      24   72237   72231
      24   72237   72234      25   72243   72240      24   72246   72240      24
   72246   72243      25   72252   72249      24   72255   72249      24   72255
   72252      25   72261   72258      24   72264   72258      24   72264   72261
      25   72270   72267      24   72273   72267      24   72273   72270      25
   72279   72276      24   72282   72276      24   72282   72279      25   72288
   72285      24   72291   72285      24   72291   72288      25   72297   72294
      24   72300   72294      24   72300   72297      25   72306   72303      24
   72309   72303      24   72309   72306      25   72315   72312      24   72318
   72312      24   72318   72315      25   72324   72321      24   72327   72321
      24   72327   72324      25   72333   72330      24   72336   72330      24
   72336   72333      25   72342   72339      24   72345   72339      24   72345
   72342      25   72351   72348      24   72354   72348      24   72354   72351
      25   72360   72357      24   72363   72357      24   72363   72360      25
   72369   72366      24   72372   72366      24   72372   72369      25   72378
   72375      24   72381   72375      24   72381   72378      25   72387   72384
      24   72390   72384      24   72390   72387      25   72396   72393      24
   72399   72393      24   72399   72396      25   72405   72402      24   72408
   72402      24   72408   72405      25   72414   72411      24   72417   72411
      24   72417   72414      25   72423   72420      24   72426   72420      24
   72426   72423      25   72432   72429      24   72435   72429      24   72435
   72432      25   72441   72438      24   72444   72438      24   72444   72441
      25   72450   72447      24   72453   72447      24   72453   72450      25
   72459   72456      24   72462   72456      24   72462   72459      25   72468
   72465      24   72471   72465      24   72471   72468      25   72477   72474
      24   72480   72474      24   72480   72477      25   72486   72483      24
   72489   72483      24   72489   72486      25   72495   72492      24   72498
   72492      24   72498   72495      25   72504   72501      24   72507   72501
      24   72507   72504      25   72513   72510      24   72516   72510      24
   72516   72513      25   72522   72519      24   72525   72519      24   72525
   72522      25   72531   72528      24   72534   72528      24   72534   72531
      25   72540   72537      24   72543   72537      24   72543   72540      25
   72549   72546      24   72552   72546      24   72552   72549      25   72558
   72555      24   72561   72555      24   72561   72558      25   72567   72564
      24   72570   72564      24   72570   72567      25   72576   72573      24
   72579   72573      24   72579   72576      25   72585   72582      24   72588
   72582      24   72588   72585      25   72594   72591      24   72597   72591
      24   72597   72594      25   72603   72600      24   72606   72600      24
   72606   72603      25   72612   72609      24   72615   72609      24   72615
   72612      25   72621   72618      24   72624   72618      24   72624   72621
      25   72630   72627      24   72633   72627      24   72633   72630      25
   72639   72636      24   72642   72636      24   72642   72639      25   72648
   72645      24   72651   72645      24   72651   72648      25   72657   72654
      24   72660   72654      24   72660   72657      25   72666   72663      24
   72669   72663      24   72669   72666      25   72675   72672      24   72678
   72672      24   72678   72675      25   72684   72681      24   72687   72681
      24   72687   72684      25   72693   72690      24   72696   72690      24
   72696   72693      25   72702   72699      24   72705   72699      24   72705
   72702      25   72711   72708      24   72714   72708      24   72714   72711
      25   72720   72717      24   72723   72717      24   72723   72720      25
   72729   72726      24   72732   72726      24   72732   72729      25   72738
   72735      24   72741   72735      24   72741   72738      25   72747   72744
      24   72750   72744      24   72750   72747      25   72756   72753      24
   72759   72753      24   72759   72756      25   72765   72762      24   72768
   72762      24   72768   72765      25   72774   72771      24   72777   72771
      24   72777   72774      25   72783   72780      24   72786   72780      24
   72786   72783      25   72792   72789      24   72795   72789      24   72795
   72792      25   72801   72798      24   72804   72798      24   72804   72801
      25   72810   72807      24   72813   72807      24   72813   72810      25
   72819   72816      24   72822   72816      24   72822   72819      25   72828
   72825      24   72831   72825      24   72831   72828      25   72837   72834
      24   72840   72834      24   72840   72837      25   72846   72843      24
   72849   72843      24   72849   72846      25   72855   72852      24   72858
   72852      24   72858   72855      25   72864   72861      24   72867   72861
      24   72867   72864      25   72873   72870      24   72876   72870      24
   72876   72873      25   72882   72879      24   72885   72879      24   72885
   72882      25   72891   72888      24   72894   72888      24   72894   72891
      25   72900   72897      24   72903   72897      24   72903   72900      25
   72909   72906      24   72912   72906      24   72912   72909      25   72918
   72915      24   72921   72915      24   72921   72918      25   72927   72924
      24   72930   72924      24   72930   72927      25   72936   72933      24
   72939   72933      24   72939   72936      25   72945   72942      24   72948
   72942      24   72948   72945      25   72954   72951      24   72957   72951
      24   72957   72954      25   72963   72960      24   72966   72960      24
   72966   72963      25   72972   72969      24   72975   72969      24   72975
   72972      25   72981   72978      24   72984   72978      24   72984   72981
      25   72990   72987      24   72993   72987      24   72993   72990      25
   72999   72996      24   73002   72996      24   73002   72999      25   73008
   73005      24   73011   73005      24   73011   73008      25   73017   73014
      24   73020   73014      24   73020   73017      25   73026   73023      24
   73029   73023      24   73029   73026      25   73035   73032      24   73038
   73032      24   73038   73035      25   73044   73041      24   73047   73041
      24   73047   73044      25   73053   73050      24   73056   73050      24
   73056   73053      25   73062   73059      24   73065   73059      24   73065
   73062      25   73071   73068      24   73074   73068      24   73074   73071
      25   73080   73077      24   73083   73077      24   73083   73080      25
   73089   73086      24   73092   73086      24   73092   73089      25   73098
   73095      24   73101   73095      24   73101   73098      25   73107   73104
      24   73110   73104      24   73110   73107      25   73116   73113      24
   73119   73113      24   73119   73116      25   73125   73122      24   73128
   73122      24   73128   73125      25   73134   73131      24   73137   73131
      24   73137   73134      25   73143   73140      24   73146   73140      24
   73146   73143      25   73152   73149      24   73155   73149      24   73155
   73152      25   73161   73158      24   73164   73158      24   73164   73161
      25   73170   73167      24   73173   73167      24   73173   73170      25
   73179   73176      24   73182   73176      24   73182   73179      25   73188
   73185      24   73191   73185      24   73191   73188      25   73197   73194
      24   73200   73194      24   73200   73197      25   73206   73203      24
   73209   73203      24   73209   73206      25   73215   73212      24   73218
   73212      24   73218   73215      25   73224   73221      24   73227   73221
      24   73227   73224      25   73233   73230      24   73236   73230      24
   73236   73233      25   73242   73239      24   73245   73239      24   73245
   73242      25   73251   73248      24   73254   73248      24   73254   73251
      25   73260   73257      24   73263   73257      24   73263   73260      25
   73269   73266      24   73272   73266      24   73272   73269      25   73278
   73275      24   73281   73275      24   73281   73278      25   73287   73284
      24   73290   73284      24   73290   73287      25   73296   73293      24
   73299   73293      24   73299   73296      25   73305   73302      24   73308
   73302      24   73308   73305      25   73314   73311      24   73317   73311
      24   73317   73314      25   73323   73320      24   73326   73320      24
   73326   73323      25   73332   73329      24   73335   73329      24   73335
   73332      25   73341   73338      24   73344   73338      24   73344   73341
      25   73350   73347      24   73353   73347      24   73353   73350      25
   73359   73356      24   73362   73356      24   73362   73359      25   73368
   73365      24   73371   73365      24   73371   73368      25   73377   73374
      24   73380   73374      24   73380   73377      25   73386   73383      24
   73389   73383      24   73389   73386      25   73395   73392      24   73398
   73392      24   73398   73395      25   73404   73401      24   73407   73401
      24   73407   73404      25   73413   73410      24   73416   73410      24
   73416   73413      25   73422   73419      24   73425   73419      24   73425
   73422      25   73431   73428      24   73434   73428      24   73434   73431
      25   73440   73437      24   73443   73437      24   73443   73440      25
   73449   73446      24   73452   73446      24   73452   73449      25   73458
   73455      24   73461   73455      24   73461   73458      25   73467   73464
      24   73470   73464      24   73470   73467      25   73476   73473      24
   73479   73473      24   73479   73476      25   73485   73482      24   73488
   73482      24   73488   73485      25   73494   73491      24   73497   73491
      24   73497   73494      25   73503   73500      24   73506   73500      24
   73506   73503      25   73512   73509      24   73515   73509      24   73515
   73512      25   73521   73518      24   73524   73518      24   73524   73521
      25   73530   73527      24   73533   73527      24   73533   73530      25
   73539   73536      24   73542   73536      24   73542   73539      25   73548
   73545      24   73551   73545      24   73551   73548      25   73557   73554
      24   73560   73554      24   73560   73557      25   73566   73563      24
   73569   73563      24   73569   73566      25   73575   73572      24   73578
   73572      24   73578   73575      25   73584   73581      24   73587   73581
      24   73587   73584      25   73593   73590      24   73596   73590      24
   73596   73593      25   73602   73599      24   73605   73599      24   73605
   73602      25   73611   73608      24   73614   73608      24   73614   73611
      25   73620   73617      24   73623   73617      24   73623   73620      25
   73629   73626      24   73632   73626      24   73632   73629      25   73638
   73635      24   73641   73635      24   73641   73638      25   73647   73644
      24   73650   73644      24   73650   73647      25   73656   73653      24
   73659   73653      24   73659   73656      25   73665   73662      24   73668
   73662      24   73668   73665      25   73674   73671      24   73677   73671
      24   73677   73674      25   73683   73680      24   73686   73680      24
   73686   73683      25   73692   73689      24   73695   73689      24   73695
   73692      25   73701   73698      24   73704   73698      24   73704   73701
      25   73710   73707      24   73713   73707      24   73713   73710      25
   73719   73716      24   73722   73716      24   73722   73719      25   73728
   73725      24   73731   73725      24   73731   73728      25   73737   73734
      24   73740   73734      24   73740   73737      25   73746   73743      24
   73749   73743      24   73749   73746      25   73755   73752      24   73758
   73752      24   73758   73755      25   73764   73761      24   73767   73761
      24   73767   73764      25   73773   73770      24   73776   73770      24
   73776   73773      25   73782   73779      24   73785   73779      24   73785
   73782      25   73791   73788      24   73794   73788      24   73794   73791
      25   73800   73797      24   73803   73797      24   73803   73800      25
   73809   73806      24   73812   73806      24   73812   73809      25   73818
   73815      24   73821   73815      24   73821   73818      25   73827   73824
      24   73830   73824      24   73830   73827      25   73836   73833      24
   73839   73833      24   73839   73836      25   73845   73842      24   73848
   73842      24   73848   73845      25   73854   73851      24   73857   73851
      24   73857   73854      25   73863   73860      24   73866   73860      24
   73866   73863      25   73872   73869      24   73875   73869      24   73875
   73872      25   73881   73878      24   73884   73878      24   73884   73881
      25   73890   73887      24   73893   73887      24   73893   73890      25
   73899   73896      24   73902   73896      24   73902   73899      25   73908
   73905      24   73911   73905      24   73911   73908      25   73917   73914
      24   73920   73914      24   73920   73917      25   73926   73923      24
   73929   73923      24   73929   73926      25   73935   73932      24   73938
   73932      24   73938   73935      25   73944   73941      24   73947   73941
      24   73947   73944      25   73953   73950      24   73956   73950      24
   73956   73953      25   73962   73959      24   73965   73959      24   73965
   73962      25   73971   73968      24   73974   73968      24   73974   73971
      25   73980   73977      24   73983   73977      24   73983   73980      25
   73989   73986      24   73992   73986      24   73992   73989      25   73998
   73995      24   74001   73995      24   74001   73998      25   74007   74004
      24   74010   74004      24   74010   74007      25   74016   74013      24
   74019   74013      24   74019   74016      25   74025   74022      24   74028
   74022      24   74028   74025      25   74034   74031      24   74037   74031
      24   74037   74034      25   74043   74040      24   74046   74040      24
   74046   74043      25   74052   74049      24   74055   74049      24   74055
   74052      25   74061   74058      24   74064   74058      24   74064   74061
      25   74070   74067      24   74073   74067      24   74073   74070      25
   74079   74076      24   74082   74076      24   74082   74079      25   74088
   74085      24   74091   74085      24   74091   74088      25   74097   74094
      24   74100   74094      24   74100   74097      25   74106   74103      24
   74109   74103      24   74109   74106      25   74115   74112      24   74118
   74112      24   74118   74115      25   74124   74121      24   74127   74121
      24   74127   74124      25   74133   74130      24   74136   74130      24
   74136   74133      25   74142   74139      24   74145   74139      24   74145
   74142      25   74151   74148      24   74154   74148      24   74154   74151
      25   74160   74157      24   74163   74157      24   74163   74160      25
   74169   74166      24   74172   74166      24   74172   74169      25   74178
   74175      24   74181   74175      24   74181   74178      25   74187   74184
      24   74190   74184      24   74190   74187      25   74196   74193      24
   74199   74193      24   74199   74196      25   74205   74202      24   74208
   74202      24   74208   74205      25   74214   74211      24   74217   74211
      24   74217   74214      25   74223   74220      24   74226   74220      24
   74226   74223      25   74232   74229      24   74235   74229      24   74235
   74232      25   74241   74238      24   74244   74238      24   74244   74241
      25   74250   74247      24   74253   74247      24   74253   74250      25
   74259   74256      24   74262   74256      24   74262   74259      25   74268
   74265      24   74271   74265      24   74271   74268      25   74277   74274
      24   74280   74274      24   74280   74277      25   74286   74283      24
   74289   74283      24   74289   74286      25   74295   74292      24   74298
   74292      24   74298   74295      25   74304   74301      24   74307   74301
      24   74307   74304      25   74313   74310      24   74316   74310      24
   74316   74313      25   74322   74319      24   74325   74319      24   74325
   74322      25   74331   74328      24   74334   74328      24   74334   74331
      25   74340   74337      24   74343   74337      24   74343   74340      25
   74349   74346      24   74352   74346      24   74352   74349      25   74358
   74355      24   74361   74355      24   74361   74358      25   74367   74364
      24   74370   74364      24   74370   74367      25   74376   74373      24
   74379   74373      24   74379   74376      25   74385   74382      24   74388
   74382      24   74388   74385      25   74394   74391      24   74397   74391
      24   74397   74394      25   74403   74400      24   74406   74400      24
   74406   74403      25   74412   74409      24   74415   74409      24   74415
   74412      25   74421   74418      24   74424   74418      24   74424   74421
      25   74430   74427      24   74433   74427      24   74433   74430      25
   74439   74436      24   74442   74436      24   74442   74439      25   74448
   74445      24   74451   74445      24   74451   74448      25   74457   74454
      24   74460   74454      24   74460   74457      25   74466   74463      24
   74469   74463      24   74469   74466      25   74475   74472      24   74478
   74472      24   74478   74475      25   74484   74481      24   74487   74481
      24   74487   74484      25   74493   74490      24   74496   74490      24
   74496   74493      25   74502   74499      24   74505   74499      24   74505
   74502      25   74511   74508      24   74514   74508      24   74514   74511
      25   74520   74517      24   74523   74517      24   74523   74520      25
   74529   74526      24   74532   74526      24   74532   74529      25   74538
   74535      24   74541   74535      24   74541   74538      25   74547   74544
      24   74550   74544      24   74550   74547      25   74556   74553      24
   74559   74553      24   74559   74556      25   74565   74562      24   74568
   74562      24   74568   74565      25   74574   74571      24   74577   74571
      24   74577   74574      25   74583   74580      24   74586   74580      24
   74586   74583      25   74592   74589      24   74595   74589      24   74595
   74592      25   74601   74598      24   74604   74598      24   74604   74601
      25   74610   74607      24   74613   74607      24   74613   74610      25
   74619   74616      24   74622   74616      24   74622   74619      25   74628
   74625      24   74631   74625      24   74631   74628      25   74637   74634
      24   74640   74634      24   74640   74637      25   74646   74643      24
   74649   74643      24   74649   74646      25   74655   74652      24   74658
   74652      24   74658   74655      25   74664   74661      24   74667   74661
      24   74667   74664      25   74673   74670      24   74676   74670      24
   74676   74673      25   74682   74679      24   74685   74679      24   74685
   74682      25   74691   74688      24   74694   74688      24   74694   74691
      25   74700   74697      24   74703   74697      24   74703   74700      25
   74709   74706      24   74712   74706      24   74712   74709      25   74718
   74715      24   74721   74715      24   74721   74718      25   74727   74724
      24   74730   74724      24   74730   74727      25   74736   74733      24
   74739   74733      24   74739   74736      25   74745   74742      24   74748
   74742      24   74748   74745      25   74754   74751      24   74757   74751
      24   74757   74754      25   74763   74760      24   74766   74760      24
   74766   74763      25   74772   74769      24   74775   74769      24   74775
   74772      25   74781   74778      24   74784   74778      24   74784   74781
      25   74790   74787      24   74793   74787      24   74793   74790      25
   74799   74796      24   74802   74796      24   74802   74799      25   74808
   74805      24   74811   74805      24   74811   74808      25   74817   74814
      24   74820   74814      24   74820   74817      25   74826   74823      24
   74829   74823      24   74829   74826      25   74835   74832      24   74838
   74832      24   74838   74835      25   74844   74841      24   74847   74841
      24   74847   74844      25   74853   74850      24   74856   74850      24
   74856   74853      25   74862   74859      24   74865   74859      24   74865
   74862      25   74871   74868      24   74874   74868      24   74874   74871
      25   74880   74877      24   74883   74877      24   74883   74880      25
   74889   74886      24   74892   74886      24   74892   74889      25   74898
   74895      24   74901   74895      24   74901   74898      25   74907   74904
      24   74910   74904      24   74910   74907      25   74916   74913      24
   74919   74913      24   74919   74916      25   74925   74922      24   74928
   74922      24   74928   74925      25   74934   74931      24   74937   74931
      24   74937   74934      25   74943   74940      24   74946   74940      24
   74946   74943      25   74952   74949      24   74955   74949      24   74955
   74952      25   74961   74958      24   74964   74958      24   74964   74961
      25   74970   74967      24   74973   74967      24   74973   74970      25
   74979   74976      24   74982   74976      24   74982   74979      25   74988
   74985      24   74991   74985      24   74991   74988      25   74997   74994
      24   75000   74994      24   75000   74997      25   75006   75003      24
   75009   75003      24   75009   75006      25   75015   75012      24   75018
   75012      24   75018   75015      25   75024   75021      24   75027   75021
      24   75027   75024      25   75033   75030      24   75036   75030      24
   75036   75033      25   75042   75039      24   75045   75039      24   75045
   75042      25   75051   75048      24   75054   75048      24   75054   75051
      25   75060   75057      24   75063   75057      24   75063   75060      25
   75069   75066      24   75072   75066      24   75072   75069      25   75078
   75075      24   75081   75075      24   75081   75078      25   75087   75084
      24   75090   75084      24   75090   75087      25   75096   75093      24
   75099   75093      24   75099   75096      25   75105   75102      24   75108
   75102      24   75108   75105      25   75114   75111      24   75117   75111
      24   75117   75114      25   75123   75120      24   75126   75120      24
   75126   75123      25   75132   75129      24   75135   75129      24   75135
   75132      25   75141   75138      24   75144   75138      24   75144   75141
      25   75150   75147      24   75153   75147      24   75153   75150      25
   75159   75156      24   75162   75156      24   75162   75159      25   75168
   75165      24   75171   75165      24   75171   75168      25   75177   75174
      24   75180   75174      24   75180   75177      25   75186   75183      24
   75189   75183      24   75189   75186      25   75195   75192      24   75198
   75192      24   75198   75195      25   75204   75201      24   75207   75201
      24   75207   75204      25   75213   75210      24   75216   75210      24
   75216   75213      25   75222   75219      24   75225   75219      24   75225
   75222      25   75231   75228      24   75234   75228      24   75234   75231
      25   75240   75237      24   75243   75237      24   75243   75240      25
   75249   75246      24   75252   75246      24   75252   75249      25   75258
   75255      24   75261   75255      24   75261   75258      25   75267   75264
      24   75270   75264      24   75270   75267      25   75276   75273      24
   75279   75273      24   75279   75276      25   75285   75282      24   75288
   75282      24   75288   75285      25   75294   75291      24   75297   75291
      24   75297   75294      25   75303   75300      24   75306   75300      24
   75306   75303      25   75312   75309      24   75315   75309      24   75315
   75312      25   75321   75318      24   75324   75318      24   75324   75321
      25   75330   75327      24   75333   75327      24   75333   75330      25
   75339   75336      24   75342   75336      24   75342   75339      25   75348
   75345      24   75351   75345      24   75351   75348      25   75357   75354
      24   75360   75354      24   75360   75357      25   75366   75363      24
   75369   75363      24   75369   75366      25   75375   75372      24   75378
   75372      24   75378   75375      25   75384   75381      24   75387   75381
      24   75387   75384      25   75393   75390      24   75396   75390      24
   75396   75393      25   75402   75399      24   75405   75399      24   75405
   75402      25   75411   75408      24   75414   75408      24   75414   75411
      25   75420   75417      24   75423   75417      24   75423   75420      25
   75429   75426      24   75432   75426      24   75432   75429      25   75438
   75435      24   75441   75435      24   75441   75438      25   75447   75444
      24   75450   75444      24   75450   75447      25   75456   75453      24
   75459   75453      24   75459   75456      25   75465   75462      24   75468
   75462      24   75468   75465      25   75474   75471      24   75477   75471
      24   75477   75474      25   75483   75480      24   75486   75480      24
   75486   75483      25   75492   75489      24   75495   75489      24   75495
   75492      25   75501   75498      24   75504   75498      24   75504   75501
      25   75510   75507      24   75513   75507      24   75513   75510      25
   75519   75516      24   75522   75516      24   75522   75519      25   75528
   75525      24   75531   75525      24   75531   75528      25   75537   75534
      24   75540   75534      24   75540   75537      25   75546   75543      24
   75549   75543      24   75549   75546      25   75555   75552      24   75558
   75552      24   75558   75555      25   75564   75561      24   75567   75561
      24   75567   75564      25   75573   75570      24   75576   75570      24
   75576   75573      25   75582   75579      24   75585   75579      24   75585
   75582      25   75591   75588      24   75594   75588      24   75594   75591
      25   75600   75597      24   75603   75597      24   75603   75600      25
   75609   75606      24   75612   75606      24   75612   75609      25   75618
   75615      24   75621   75615      24   75621   75618      25   75627   75624
      24   75630   75624      24   75630   75627      25   75636   75633      24
   75639   75633      24   75639   75636      25   75645   75642      24   75648
   75642      24   75648   75645      25   75654   75651      24   75657   75651
      24   75657   75654      25   75663   75660      24   75666   75660      24
   75666   75663      25   75672   75669      24   75675   75669      24   75675
   75672      25   75681   75678      24   75684   75678      24   75684   75681
      25   75690   75687      24   75693   75687      24   75693   75690      25
   75699   75696      24   75702   75696      24   75702   75699      25   75708
   75705      24   75711   75705      24   75711   75708      25   75717   75714
      24   75720   75714      24   75720   75717      25   75726   75723      24
   75729   75723      24   75729   75726      25   75735   75732      24   75738
   75732      24   75738   75735      25   75744   75741      24   75747   75741
      24   75747   75744      25   75753   75750      24   75756   75750      24
   75756   75753      25   75762   75759      24   75765   75759      24   75765
   75762      25   75771   75768      24   75774   75768      24   75774   75771
      25   75780   75777      24   75783   75777      24   75783   75780      25
   75789   75786      24   75792   75786      24   75792   75789      25   75798
   75795      24   75801   75795      24   75801   75798      25   75807   75804
      24   75810   75804      24   75810   75807      25   75816   75813      24
   75819   75813      24   75819   75816      25   75825   75822      24   75828
   75822      24   75828   75825      25   75834   75831      24   75837   75831
      24   75837   75834      25   75843   75840      24   75846   75840      24
   75846   75843      25   75852   75849      24   75855   75849      24   75855
   75852      25   75861   75858      24   75864   75858      24   75864   75861
      25   75870   75867      24   75873   75867      24   75873   75870      25
   75879   75876      24   75882   75876      24   75882   75879      25   75888
   75885      24   75891   75885      24   75891   75888      25   75897   75894
      24   75900   75894      24   75900   75897      25   75906   75903      24
   75909   75903      24   75909   75906      25   75915   75912      24   75918
   75912      24   75918   75915      25   75924   75921      24   75927   75921
      24   75927   75924      25   75933   75930      24   75936   75930      24
   75936   75933      25   75942   75939      24   75945   75939      24   75945
   75942      25   75951   75948      24   75954   75948      24   75954   75951
      25   75960   75957      24   75963   75957      24   75963   75960      25
   75969   75966      24   75972   75966      24   75972   75969      25   75978
   75975      24   75981   75975      24   75981   75978      25   75987   75984
      24   75990   75984      24   75990   75987      25   75996   75993      24
   75999   75993      24   75999   75996      25   76005   76002      24   76008
   76002      24   76008   76005      25   76014   76011      24   76017   76011
      24   76017   76014      25   76023   76020      24   76026   76020      24
   76026   76023      25   76032   76029      24   76035   76029      24   76035
   76032      25   76041   76038      24   76044   76038      24   76044   76041
      25   76050   76047      24   76053   76047      24   76053   76050      25
   76059   76056      24   76062   76056      24   76062   76059      25   76068
   76065      24   76071   76065      24   76071   76068      25   76077   76074
      24   76080   76074      24   76080   76077      25   76086   76083      24
   76089   76083      24   76089   76086      25   76095   76092      24   76098
   76092      24   76098   76095      25   76104   76101      24   76107   76101
      24   76107   76104      25   76113   76110      24   76116   76110      24
   76116   76113      25   76122   76119      24   76125   76119      24   76125
   76122      25   76131   76128      24   76134   76128      24   76134   76131
      25   76140   76137      24   76143   76137      24   76143   76140      25
   76149   76146      24   76152   76146      24   76152   76149      25   76158
   76155      24   76161   76155      24   76161   76158      25   76167   76164
      24   76170   76164      24   76170   76167      25   76176   76173      24
   76179   76173      24   76179   76176      25   76185   76182      24   76188
   76182      24   76188   76185      25   76194   76191      24   76197   76191
      24   76197   76194      25   76203   76200      24   76206   76200      24
   76206   76203      25   76212   76209      24   76215   76209      24   76215
   76212      25   76221   76218      24   76224   76218      24   76224   76221
      25   76230   76227      24   76233   76227      24   76233   76230      25
   76239   76236      24   76242   76236      24   76242   76239      25   76248
   76245      24   76251   76245      24   76251   76248      25   76257   76254
      24   76260   76254      24   76260   76257      25   76266   76263      24
   76269   76263      24   76269   76266      25   76275   76272      24   76278
   76272      24   76278   76275      25   76284   76281      24   76287   76281
      24   76287   76284      25   76293   76290      24   76296   76290      24
   76296   76293      25   76302   76299      24   76305   76299      24   76305
   76302      25   76311   76308      24   76314   76308      24   76314   76311
      25   76320   76317      24   76323   76317      24   76323   76320      25
   76329   76326      24   76332   76326      24   76332   76329      25   76338
   76335      24   76341   76335      24   76341   76338      25   76347   76344
      24   76350   76344      24   76350   76347      25   76356   76353      24
   76359   76353      24   76359   76356      25   76365   76362      24   76368
   76362      24   76368   76365      25   76374   76371      24   76377   76371
      24   76377   76374      25   76383   76380      24   76386   76380      24
   76386   76383      25   76392   76389      24   76395   76389      24   76395
   76392      25   76401   76398      24   76404   76398      24   76404   76401
      25   76410   76407      24   76413   76407      24   76413   76410      25
   76419   76416      24   76422   76416      24   76422   76419      25   76428
   76425      24   76431   76425      24   76431   76428      25   76437   76434
      24   76440   76434      24   76440   76437      25   76446   76443      24
   76449   76443      24   76449   76446      25   76455   76452      24   76458
   76452      24   76458   76455      25   76464   76461      24   76467   76461
      24   76467   76464      25   76473   76470      24   76476   76470      24
   76476   76473      25   76482   76479      24   76485   76479      24   76485
   76482      25   76491   76488      24   76494   76488      24   76494   76491
      25   76500   76497      24   76503   76497      24   76503   76500      25
   76509   76506      24   76512   76506      24   76512   76509      25   76518
   76515      24   76521   76515      24   76521   76518      25   76527   76524
      24   76530   76524      24   76530   76527      25   76536   76533      24
   76539   76533      24   76539   76536      25   76545   76542      24   76548
   76542      24   76548   76545      25   76554   76551      24   76557   76551
      24   76557   76554      25   76563   76560      24   76566   76560      24
   76566   76563      25   76572   76569      24   76575   76569      24   76575
   76572      25   76581   76578      24   76584   76578      24   76584   76581
      25   76590   76587      24   76593   76587      24   76593   76590      25
   76599   76596      24   76602   76596      24   76602   76599      25   76608
   76605      24   76611   76605      24   76611   76608      25   76617   76614
      24   76620   76614      24   76620   76617      25   76626   76623      24
   76629   76623      24   76629   76626      25   76635   76632      24   76638
   76632      24   76638   76635      25   76644   76641      24   76647   76641
      24   76647   76644      25   76653   76650      24   76656   76650      24
   76656   76653      25   76662   76659      24   76665   76659      24   76665
   76662      25   76671   76668      24   76674   76668      24   76674   76671
      25   76680   76677      24   76683   76677      24   76683   76680      25
   76689   76686      24   76692   76686      24   76692   76689      25   76698
   76695      24   76701   76695      24   76701   76698      25   76707   76704
      24   76710   76704      24   76710   76707      25   76716   76713      24
   76719   76713      24   76719   76716      25   76725   76722      24   76728
   76722      24   76728   76725      25   76734   76731      24   76737   76731
      24   76737   76734      25   76743   76740      24   76746   76740      24
   76746   76743      25   76752   76749      24   76755   76749      24   76755
   76752      25   76761   76758      24   76764   76758      24   76764   76761
      25   76770   76767      24   76773   76767      24   76773   76770      25
   76779   76776      24   76782   76776      24   76782   76779      25   76788
   76785      24   76791   76785      24   76791   76788      25   76797   76794
      24   76800   76794      24   76800   76797      25   76806   76803      24
   76809   76803      24   76809   76806      25   76815   76812      24   76818
   76812      24   76818   76815      25   76824   76821      24   76827   76821
      24   76827   76824      25   76833   76830      24   76836   76830      24
   76836   76833      25   76842   76839      24   76845   76839      24   76845
   76842      25   76851   76848      24   76854   76848      24   76854   76851
      25   76860   76857      24   76863   76857      24   76863   76860      25
   76869   76866      24   76872   76866      24   76872   76869      25   76878
   76875      24   76881   76875      24   76881   76878      25   76887   76884
      24   76890   76884      24   76890   76887      25   76896   76893      24
   76899   76893      24   76899   76896      25   76905   76902      24   76908
   76902      24   76908   76905      25   76914   76911      24   76917   76911
      24   76917   76914      25   76923   76920      24   76926   76920      24
   76926   76923      25   76932   76929      24   76935   76929      24   76935
   76932      25   76941   76938      24   76944   76938      24   76944   76941
      25   76950   76947      24   76953   76947      24   76953   76950      25
   76959   76956      24   76962   76956      24   76962   76959      25   76968
   76965      24   76971   76965      24   76971   76968      25   76977   76974
      24   76980   76974      24   76980   76977      25   76986   76983      24
   76989   76983      24   76989   76986      25   76995   76992      24   76998
   76992      24   76998   76995      25   77004   77001      24   77007   77001
      24   77007   77004      25   77013   77010      24   77016   77010      24
   77016   77013      25   77022   77019      24   77025   77019      24   77025
   77022      25   77031   77028      24   77034   77028      24   77034   77031
      25   77040   77037      24   77043   77037      24   77043   77040      25
   77049   77046      24   77052   77046      24   77052   77049      25   77058
   77055      24   77061   77055      24   77061   77058      25   77067   77064
      24   77070   77064      24   77070   77067      25   77076   77073      24
   77079   77073      24   77079   77076      25   77085   77082      24   77088
   77082      24   77088   77085      25   77094   77091      24   77097   77091
      24   77097   77094      25   77103   77100      24   77106   77100      24
   77106   77103      25   77112   77109      24   77115   77109      24   77115
   77112      25   77121   77118      24   77124   77118      24   77124   77121
      25   77130   77127      24   77133   77127      24   77133   77130      25
   77139   77136      24   77142   77136      24   77142   77139      25   77148
   77145      24   77151   77145      24   77151   77148      25   77157   77154
      24   77160   77154      24   77160   77157      25   77166   77163      24
   77169   77163      24   77169   77166      25   77175   77172      24   77178
   77172      24   77178   77175      25   77184   77181      24   77187   77181
      24   77187   77184      25   77193   77190      24   77196   77190      24
   77196   77193      25   77202   77199      24   77205   77199      24   77205
   77202      25   77211   77208      24   77214   77208      24   77214   77211
      25   77220   77217      24   77223   77217      24   77223   77220      25
   77229   77226      24   77232   77226      24   77232   77229      25   77238
   77235      24   77241   77235      24   77241   77238      25   77247   77244
      24   77250   77244      24   77250   77247      25   77256   77253      24
   77259   77253      24   77259   77256      25   77265   77262      24   77268
   77262      24   77268   77265      25   77274   77271      24   77277   77271
      24   77277   77274      25   77283   77280      24   77286   77280      24
   77286   77283      25   77292   77289      24   77295   77289      24   77295
   77292      25   77301   77298      24   77304   77298      24   77304   77301
      25   77310   77307      24   77313   77307      24   77313   77310      25
   77319   77316      24   77322   77316      24   77322   77319      25   77328
   77325      24   77331   77325      24   77331   77328      25   77337   77334
      24   77340   77334      24   77340   77337      25   77346   77343      24
   77349   77343      24   77349   77346      25   77355   77352      24   77358
   77352      24   77358   77355      25   77364   77361      24   77367   77361
      24   77367   77364      25   77373   77370      24   77376   77370      24
   77376   77373      25   77382   77379      24   77385   77379      24   77385
   77382      25   77391   77388      24   77394   77388      24   77394   77391
      25   77400   77397      24   77403   77397      24   77403   77400      25
   77409   77406      24   77412   77406      24   77412   77409      25   77418
   77415      24   77421   77415      24   77421   77418      25   77427   77424
      24   77430   77424      24   77430   77427      25   77436   77433      24
   77439   77433      24   77439   77436      25   77445   77442      24   77448
   77442      24   77448   77445      25   77454   77451      24   77457   77451
      24   77457   77454      25   77463   77460      24   77466   77460      24
   77466   77463      25   77472   77469      24   77475   77469      24   77475
   77472      25   77481   77478      24   77484   77478      24   77484   77481
      25   77490   77487      24   77493   77487      24   77493   77490      25
   77499   77496      24   77502   77496      24   77502   77499      25   77508
   77505      24   77511   77505      24   77511   77508      25   77517   77514
      24   77520   77514      24   77520   77517      25   77526   77523      24
   77529   77523      24   77529   77526      25   77535   77532      24   77538
   77532      24   77538   77535      25   77544   77541      24   77547   77541
      24   77547   77544      25   77553   77550      24   77556   77550      24
   77556   77553      25   77562   77559      24   77565   77559      24   77565
   77562      25   77571   77568      24   77574   77568      24   77574   77571
      25   77580   77577      24   77583   77577      24   77583   77580      25
   77589   77586      24   77592   77586      24   77592   77589      25   77598
   77595      24   77601   77595      24   77601   77598      25   77607   77604
      24   77610   77604      24   77610   77607      25   77616   77613      24
   77619   77613      24   77619   77616      25   77625   77622      24   77628
   77622      24   77628   77625      25   77634   77631      24   77637   77631
      24   77637   77634      25   77643   77640      24   77646   77640      24
   77646   77643      25   77652   77649      24   77655   77649      24   77655
   77652      25   77661   77658      24   77664   77658      24   77664   77661
      25   77670   77667      24   77673   77667      24   77673   77670      25
   77679   77676      24   77682   77676      24   77682   77679      25   77688
   77685      24   77691   77685      24   77691   77688      25   77697   77694
      24   77700   77694      24   77700   77697      25   77706   77703      24
   77709   77703      24   77709   77706      25   77715   77712      24   77718
   77712      24   77718   77715      25   77724   77721      24   77727   77721
      24   77727   77724      25   77733   77730      24   77736   77730      24
   77736   77733      25   77742   77739      24   77745   77739      24   77745
   77742      25   77751   77748      24   77754   77748      24   77754   77751
      25   77760   77757      24   77763   77757      24   77763   77760      25
   77769   77766      24   77772   77766      24   77772   77769      25   77778
   77775      24   77781   77775      24   77781   77778      25   77787   77784
      24   77790   77784      24   77790   77787      25   77796   77793      24
   77799   77793      24   77799   77796      25   77805   77802      24   77808
   77802      24   77808   77805      25   77814   77811      24   77817   77811
      24   77817   77814      25   77823   77820      24   77826   77820      24
   77826   77823      25   77832   77829      24   77835   77829      24   77835
   77832      25   77841   77838      24   77844   77838      24   77844   77841
      25   77850   77847      24   77853   77847      24   77853   77850      25
   77859   77856      24   77862   77856      24   77862   77859      25   77868
   77865      24   77871   77865      24   77871   77868      25   77877   77874
      24   77880   77874      24   77880   77877      25   77886   77883      24
   77889   77883      24   77889   77886      25   77895   77892      24   77898
   77892      24   77898   77895      25   77904   77901      24   77907   77901
      24   77907   77904      25   77913   77910      24   77916   77910      24
   77916   77913      25   77922   77919      24   77925   77919      24   77925
   77922      25   77931   77928      24   77934   77928      24   77934   77931
      25   77940   77937      24   77943   77937      24   77943   77940      25
   77949   77946      24   77952   77946      24   77952   77949      25   77958
   77955      24   77961   77955      24   77961   77958      25   77967   77964
      24   77970   77964      24   77970   77967      25   77976   77973      24
   77979   77973      24   77979   77976      25   77985   77982      24   77988
   77982      24   77988   77985      25   77994   77991      24   77997   77991
      24   77997   77994      25   78003   78000      24   78006   78000      24
   78006   78003      25   78012   78009      24   78015   78009      24   78015
   78012      25   78021   78018      24   78024   78018      24   78024   78021
      25   78030   78027      24   78033   78027      24   78033   78030      25
   78039   78036      24   78042   78036      24   78042   78039      25   78048
   78045      24   78051   78045      24   78051   78048      25   78057   78054
      24   78060   78054      24   78060   78057      25   78066   78063      24
   78069   78063      24   78069   78066      25   78075   78072      24   78078
   78072      24   78078   78075      25   78084   78081      24   78087   78081
      24   78087   78084      25   78093   78090      24   78096   78090      24
   78096   78093      25   78102   78099      24   78105   78099      24   78105
   78102      25   78111   78108      24   78114   78108      24   78114   78111
      25   78120   78117      24   78123   78117      24   78123   78120      25
   78129   78126      24   78132   78126      24   78132   78129      25   78138
   78135      24   78141   78135      24   78141   78138      25   78147   78144
      24   78150   78144      24   78150   78147      25   78156   78153      24
   78159   78153      24   78159   78156      25   78165   78162      24   78168
   78162      24   78168   78165      25   78174   78171      24   78177   78171
      24   78177   78174      25   78183   78180      24   78186   78180      24
   78186   78183      25   78192   78189      24   78195   78189      24   78195
   78192      25   78201   78198      24   78204   78198      24   78204   78201
      25   78210   78207      24   78213   78207      24   78213   78210      25
   78219   78216      24   78222   78216      24   78222   78219      25   78228
   78225      24   78231   78225      24   78231   78228      25   78237   78234
      24   78240   78234      24   78240   78237      25   78246   78243      24
   78249   78243      24   78249   78246      25   78255   78252      24   78258
   78252      24   78258   78255      25   78264   78261      24   78267   78261
      24   78267   78264      25   78273   78270      24   78276   78270      24
   78276   78273      25   78282   78279      24   78285   78279      24   78285
   78282      25   78291   78288      24   78294   78288      24   78294   78291
      25   78300   78297      24   78303   78297      24   78303   78300      25
   78309   78306      24   78312   78306      24   78312   78309      25   78318
   78315      24   78321   78315      24   78321   78318      25   78327   78324
      24   78330   78324      24   78330   78327      25   78336   78333      24
   78339   78333      24   78339   78336      25   78345   78342      24   78348
   78342      24   78348   78345      25   78354   78351      24   78357   78351
      24   78357   78354      25   78363   78360      24   78366   78360      24
   78366   78363      25   78372   78369      24   78375   78369      24   78375
   78372      25   78381   78378      24   78384   78378      24   78384   78381
      25   78390   78387      24   78393   78387      24   78393   78390      25
   78399   78396      24   78402   78396      24   78402   78399      25   78408
   78405      24   78411   78405      24   78411   78408      25   78417   78414
      24   78420   78414      24   78420   78417      25   78426   78423      24
   78429   78423      24   78429   78426      25   78435   78432      24   78438
   78432      24   78438   78435      25   78444   78441      24   78447   78441
      24   78447   78444      25   78453   78450      24   78456   78450      24
   78456   78453      25   78462   78459      24   78465   78459      24   78465
   78462      25   78471   78468      24   78474   78468      24   78474   78471
      25   78480   78477      24   78483   78477      24   78483   78480      25
   78489   78486      24   78492   78486      24   78492   78489      25   78498
   78495      24   78501   78495      24   78501   78498      25   78507   78504
      24   78510   78504      24   78510   78507      25   78516   78513      24
   78519   78513      24   78519   78516      25   78525   78522      24   78528
   78522      24   78528   78525      25   78534   78531      24   78537   78531
      24   78537   78534      25   78543   78540      24   78546   78540      24
   78546   78543      25   78552   78549      24   78555   78549      24   78555
   78552      25   78561   78558      24   78564   78558      24   78564   78561
      25   78570   78567      24   78573   78567      24   78573   78570      25
   78579   78576      24   78582   78576      24   78582   78579      25   78588
   78585      24   78591   78585      24   78591   78588      25   78597   78594
      24   78600   78594      24   78600   78597      25   78606   78603      24
   78609   78603      24   78609   78606      25   78615   78612      24   78618
   78612      24   78618   78615      25   78624   78621      24   78627   78621
      24   78627   78624      25   78633   78630      24   78636   78630      24
   78636   78633      25   78642   78639      24   78645   78639      24   78645
   78642      25   78651   78648      24   78654   78648      24   78654   78651
      25   78660   78657      24   78663   78657      24   78663   78660      25
   78669   78666      24   78672   78666      24   78672   78669      25   78678
   78675      24   78681   78675      24   78681   78678      25   78687   78684
      24   78690   78684      24   78690   78687      25   78696   78693      24
   78699   78693      24   78699   78696      25   78705   78702      24   78708
   78702      24   78708   78705      25   78714   78711      24   78717   78711
      24   78717   78714      25   78723   78720      24   78726   78720      24
   78726   78723      25   78732   78729      24   78735   78729      24   78735
   78732      25   78741   78738      24   78744   78738      24   78744   78741
      25   78750   78747      24   78753   78747      24   78753   78750      25
   78759   78756      24   78762   78756      24   78762   78759      25   78768
   78765      24   78771   78765      24   78771   78768      25   78777   78774
      24   78780   78774      24   78780   78777      25   78786   78783      24
   78789   78783      24   78789   78786      25   78795   78792      24   78798
   78792      24   78798   78795      25   78804   78801      24   78807   78801
      24   78807   78804      25   78813   78810      24   78816   78810      24
   78816   78813      25   78822   78819      24   78825   78819      24   78825
   78822      25   78831   78828      24   78834   78828      24   78834   78831
      25   78840   78837      24   78843   78837      24   78843   78840      25
   78849   78846      24   78852   78846      24   78852   78849      25   78858
   78855      24   78861   78855      24   78861   78858      25   78867   78864
      24   78870   78864      24   78870   78867      25   78876   78873      24
   78879   78873      24   78879   78876      25   78885   78882      24   78888
   78882      24   78888   78885      25   78894   78891      24   78897   78891
      24   78897   78894      25   78903   78900      24   78906   78900      24
   78906   78903      25   78912   78909      24   78915   78909      24   78915
   78912      25   78921   78918      24   78924   78918      24   78924   78921
      25   78930   78927      24   78933   78927      24   78933   78930      25
   78939   78936      24   78942   78936      24   78942   78939      25   78948
   78945      24   78951   78945      24   78951   78948      25   78957   78954
      24   78960   78954      24   78960   78957      25   78966   78963      24
   78969   78963      24   78969   78966      25   78975   78972      24   78978
   78972      24   78978   78975      25   78984   78981      24   78987   78981
      24   78987   78984      25   78993   78990      24   78996   78990      24
   78996   78993      25   79002   78999      24   79005   78999      24   79005
   79002      25   79011   79008      24   79014   79008      24   79014   79011
      25   79020   79017      24   79023   79017      24   79023   79020      25
   79029   79026      24   79032   79026      24   79032   79029      25   79038
   79035      24   79041   79035      24   79041   79038      25   79047   79044
      24   79050   79044      24   79050   79047      25   79056   79053      24
   79059   79053      24   79059   79056      25   79065   79062      24   79068
   79062      24   79068   79065      25   79074   79071      24   79077   79071
      24   79077   79074      25   79083   79080      24   79086   79080      24
   79086   79083      25   79092   79089      24   79095   79089      24   79095
   79092      25   79101   79098      24   79104   79098      24   79104   79101
      25   79110   79107      24   79113   79107      24   79113   79110      25
   79119   79116      24   79122   79116      24   79122   79119      25   79128
   79125      24   79131   79125      24   79131   79128      25   79137   79134
      24   79140   79134      24   79140   79137      25   79146   79143      24
   79149   79143      24   79149   79146      25   79155   79152      24   79158
   79152      24   79158   79155      25   79164   79161      24   79167   79161
      24   79167   79164      25   79173   79170      24   79176   79170      24
   79176   79173      25   79182   79179      24   79185   79179      24   79185
   79182      25   79191   79188      24   79194   79188      24   79194   79191
      25   79200   79197      24   79203   79197      24   79203   79200      25
   79209   79206      24   79212   79206      24   79212   79209      25   79218
   79215      24   79221   79215      24   79221   79218      25   79227   79224
      24   79230   79224      24   79230   79227      25   79236   79233      24
   79239   79233      24   79239   79236      25   79245   79242      24   79248
   79242      24   79248   79245      25   79254   79251      24   79257   79251
      24   79257   79254      25   79263   79260      24   79266   79260      24
   79266   79263      25   79272   79269      24   79275   79269      24   79275
   79272      25   79281   79278      24   79284   79278      24   79284   79281
      25   79290   79287      24   79293   79287      24   79293   79290      25
   79299   79296      24   79302   79296      24   79302   79299      25   79308
   79305      24   79311   79305      24   79311   79308      25   79317   79314
      24   79320   79314      24   79320   79317      25   79326   79323      24
   79329   79323      24   79329   79326      25   79335   79332      24   79338
   79332      24   79338   79335      25   79344   79341      24   79347   79341
      24   79347   79344      25   79353   79350      24   79356   79350      24
   79356   79353      25   79362   79359      24   79365   79359      24   79365
   79362      25   79371   79368      24   79374   79368      24   79374   79371
      25   79380   79377      24   79383   79377      24   79383   79380      25
   79389   79386      24   79392   79386      24   79392   79389      25   79398
   79395      24   79401   79395      24   79401   79398      25   79407   79404
      24   79410   79404      24   79410   79407      25   79416   79413      24
   79419   79413      24   79419   79416      25   79425   79422      24   79428
   79422      24   79428   79425      25   79434   79431      24   79437   79431
      24   79437   79434      25   79443   79440      24   79446   79440      24
   79446   79443      25   79452   79449      24   79455   79449      24   79455
   79452      25   79461   79458      24   79464   79458      24   79464   79461
      25   79470   79467      24   79473   79467      24   79473   79470      25
   79479   79476      24   79482   79476      24   79482   79479      25   79488
   79485      24   79491   79485      24   79491   79488      25   79497   79494
      24   79500   79494      24   79500   79497      25   79506   79503      24
   79509   79503      24   79509   79506      25   79515   79512      24   79518
   79512      24   79518   79515      25   79524   79521      24   79527   79521
      24   79527   79524      25   79533   79530      24   79536   79530      24
   79536   79533      25   79542   79539      24   79545   79539      24   79545
   79542      25   79551   79548      24   79554   79548      24   79554   79551
      25   79560   79557      24   79563   79557      24   79563   79560      25
   79569   79566      24   79572   79566      24   79572   79569      25   79578
   79575      24   79581   79575      24   79581   79578      25   79587   79584
      24   79590   79584      24   79590   79587      25   79596   79593      24
   79599   79593      24   79599   79596      25   79605   79602      24   79608
   79602      24   79608   79605      25   79614   79611      24   79617   79611
      24   79617   79614      25   79623   79620      24   79626   79620      24
   79626   79623      25   79632   79629      24   79635   79629      24   79635
   79632      25   79641   79638      24   79644   79638      24   79644   79641
      25   79650   79647      24   79653   79647      24   79653   79650      25
   79659   79656      24   79662   79656      24   79662   79659      25   79668
   79665      24   79671   79665      24   79671   79668      25   79677   79674
      24   79680   79674      24   79680   79677      25   79686   79683      24
   79689   79683      24   79689   79686      25   79695   79692      24   79698
   79692      24   79698   79695      25   79704   79701      24   79707   79701
      24   79707   79704      25   79713   79710      24   79716   79710      24
   79716   79713      25   79722   79719      24   79725   79719      24   79725
   79722      25   79731   79728      24   79734   79728      24   79734   79731
      25   79740   79737      24   79743   79737      24   79743   79740      25
   79749   79746      24   79752   79746      24   79752   79749      25   79758
   79755      24   79761   79755      24   79761   79758      25   79767   79764
      24   79770   79764      24   79770   79767      25   79776   79773      24
   79779   79773      24   79779   79776      25   79785   79782      24   79788
   79782      24   79788   79785      25   79794   79791      24   79797   79791
      24   79797   79794      25   79803   79800      24   79806   79800      24
   79806   79803      25   79812   79809      24   79815   79809      24   79815
   79812      25   79821   79818      24   79824   79818      24   79824   79821
      25   79830   79827      24   79833   79827      24   79833   79830      25
   79839   79836      24   79842   79836      24   79842   79839      25   79848
   79845      24   79851   79845      24   79851   79848      25   79857   79854
      24   79860   79854      24   79860   79857      25   79866   79863      24
   79869   79863      24   79869   79866      25   79875   79872      24   79878
   79872      24   79878   79875      25   79884   79881      24   79887   79881
      24   79887   79884      25   79893   79890      24   79896   79890      24
   79896   79893      25   79902   79899      24   79905   79899      24   79905
   79902      25   79911   79908      24   79914   79908      24   79914   79911
      25   79920   79917      24   79923   79917      24   79923   79920      25
   79929   79926      24   79932   79926      24   79932   79929      25   79938
   79935      24   79941   79935      24   79941   79938      25   79947   79944
      24   79950   79944      24   79950   79947      25   79956   79953      24
   79959   79953      24   79959   79956      25   79965   79962      24   79968
   79962      24   79968   79965      25   79974   79971      24   79977   79971
      24   79977   79974      25   79983   79980      24   79986   79980      24
   79986   79983      25   79992   79989      24   79995   79989      24   79995
   79992      25   80001   79998      24   80004   79998      24   80004   80001
      25   80010   80007      24   80013   80007      24   80013   80010      25
   80019   80016      24   80022   80016      24   80022   80019      25   80028
   80025      24   80031   80025      24   80031   80028      25   80037   80034
      24   80040   80034      24   80040   80037      25   80046   80043      24
   80049   80043      24   80049   80046      25   80055   80052      24   80058
   80052      24   80058   80055      25   80064   80061      24   80067   80061
      24   80067   80064      25   80073   80070      24   80076   80070      24
   80076   80073      25   80082   80079      24   80085   80079      24   80085
   80082      25   80091   80088      24   80094   80088      24   80094   80091
      25   80100   80097      24   80103   80097      24   80103   80100      25
   80109   80106      24   80112   80106      24   80112   80109      25   80118
   80115      24   80121   80115      24   80121   80118      25   80127   80124
      24   80130   80124      24   80130   80127      25   80136   80133      24
   80139   80133      24   80139   80136      25   80145   80142      24   80148
   80142      24   80148   80145      25   80154   80151      24   80157   80151
      24   80157   80154      25   80163   80160      24   80166   80160      24
   80166   80163      25   80172   80169      24   80175   80169      24   80175
   80172      25   80181   80178      24   80184   80178      24   80184   80181
      25   80190   80187      24   80193   80187      24   80193   80190      25
   80199   80196      24   80202   80196      24   80202   80199      25   80208
   80205      24   80211   80205      24   80211   80208      25   80217   80214
      24   80220   80214      24   80220   80217      25   80226   80223      24
   80229   80223      24   80229   80226      25   80235   80232      24   80238
   80232      24   80238   80235      25   80244   80241      24   80247   80241
      24   80247   80244      25   80253   80250      24   80256   80250      24
   80256   80253      25   80262   80259      24   80265   80259      24   80265
   80262      25   80271   80268      24   80274   80268      24   80274   80271
      25   80280   80277      24   80283   80277      24   80283   80280      25
   80289   80286      24   80292   80286      24   80292   80289      25   80298
   80295      24   80301   80295      24   80301   80298      25   80307   80304
      24   80310   80304      24   80310   80307      25   80316   80313      24
   80319   80313      24   80319   80316      25   80325   80322      24   80328
   80322      24   80328   80325      25   80334   80331      24   80337   80331
      24   80337   80334      25   80343   80340      24   80346   80340      24
   80346   80343      25   80352   80349      24   80355   80349      24   80355
   80352      25   80361   80358      24   80364   80358      24   80364   80361
      25   80370   80367      24   80373   80367      24   80373   80370      25
   80379   80376      24   80382   80376      24   80382   80379      25   80388
   80385      24   80391   80385      24   80391   80388      25   80397   80394
      24   80400   80394      24   80400   80397      25   80406   80403      24
   80409   80403      24   80409   80406      25   80415   80412      24   80418
   80412      24   80418   80415      25   80424   80421      24   80427   80421
      24   80427   80424      25   80433   80430      24   80436   80430      24
   80436   80433      25   80442   80439      24   80445   80439      24   80445
   80442      25   80451   80448      24   80454   80448      24   80454   80451
      25   80460   80457      24   80463   80457      24   80463   80460      25
   80469   80466      24   80472   80466      24   80472   80469      25   80478
   80475      24   80481   80475      24   80481   80478      25   80487   80484
      24   80490   80484      24   80490   80487      25   80496   80493      24
   80499   80493      24   80499   80496      25   80505   80502      24   80508
   80502      24   80508   80505      25   80514   80511      24   80517   80511
      24   80517   80514      25   80523   80520      24   80526   80520      24
   80526   80523      25   80532   80529      24   80535   80529      24   80535
   80532      25   80541   80538      24   80544   80538      24   80544   80541
      25   80550   80547      24   80553   80547      24   80553   80550      25
   80559   80556      24   80562   80556      24   80562   80559      25   80568
   80565      24   80571   80565      24   80571   80568      25   80577   80574
      24   80580   80574      24   80580   80577      25   80586   80583      24
   80589   80583      24   80589   80586      25   80595   80592      24   80598
   80592      24   80598   80595      25   80604   80601      24   80607   80601
      24   80607   80604      25   80613   80610      24   80616   80610      24
   80616   80613      25   80622   80619      24   80625   80619      24   80625
   80622      25   80631   80628      24   80634   80628      24   80634   80631
      25   80640   80637      24   80643   80637      24   80643   80640      25
   80649   80646      24   80652   80646      24   80652   80649      25   80658
   80655      24   80661   80655      24   80661   80658      25   80667   80664
      24   80670   80664      24   80670   80667      25   80676   80673      24
   80679   80673      24   80679   80676      25   80685   80682      24   80688
   80682      24   80688   80685      25   80694   80691      24   80697   80691
      24   80697   80694      25   80703   80700      24   80706   80700      24
   80706   80703      25   80712   80709      24   80715   80709      24   80715
   80712      25   80721   80718      24   80724   80718      24   80724   80721
      25   80730   80727      24   80733   80727      24   80733   80730      25
   80739   80736      24   80742   80736      24   80742   80739      25   80748
   80745      24   80751   80745      24   80751   80748      25   80757   80754
      24   80760   80754      24   80760   80757      25   80766   80763      24
   80769   80763      24   80769   80766      25   80775   80772      24   80778
   80772      24   80778   80775      25   80784   80781      24   80787   80781
      24   80787   80784      25   80793   80790      24   80796   80790      24
   80796   80793      25   80802   80799      24   80805   80799      24   80805
   80802      25   80811   80808      24   80814   80808      24   80814   80811
      25   80820   80817      24   80823   80817      24   80823   80820      25
   80829   80826      24   80832   80826      24   80832   80829      25   80838
   80835      24   80841   80835      24   80841   80838      25   80847   80844
      24   80850   80844      24   80850   80847      25   80856   80853      24
   80859   80853      24   80859   80856      25   80865   80862      24   80868
   80862      24   80868   80865      25   80874   80871      24   80877   80871
      24   80877   80874      25   80883   80880      24   80886   80880      24
   80886   80883      25   80892   80889      24   80895   80889      24   80895
   80892      25   80901   80898      24   80904   80898      24   80904   80901
      25   80910   80907      24   80913   80907      24   80913   80910      25
   80919   80916      24   80922   80916      24   80922   80919      25   80928
   80925      24   80931   80925      24   80931   80928      25   80937   80934
      24   80940   80934      24   80940   80937      25   80946   80943      24
   80949   80943      24   80949   80946      25   80955   80952      24   80958
   80952      24   80958   80955      25   80964   80961      24   80967   80961
      24   80967   80964      25   80973   80970      24   80976   80970      24
   80976   80973      25   80982   80979      24   80985   80979      24   80985
   80982      25   80991   80988      24   80994   80988      24   80994   80991
      25   81000   80997      24   81003   80997      24   81003   81000      25
   81009   81006      24   81012   81006      24   81012   81009      25   81018
   81015      24   81021   81015      24   81021   81018      25   81027   81024
      24   81030   81024      24   81030   81027      25   81036   81033      24
   81039   81033      24   81039   81036      25   81045   81042      24   81048
   81042      24   81048   81045      25   81054   81051      24   81057   81051
      24   81057   81054      25   81063   81060      24   81066   81060      24
   81066   81063      25   81072   81069      24   81075   81069      24   81075
   81072      25   81081   81078      24   81084   81078      24   81084   81081
      25   81090   81087      24   81093   81087      24   81093   81090      25
   81099   81096      24   81102   81096      24   81102   81099      25   81108
   81105      24   81111   81105      24   81111   81108      25   81117   81114
      24   81120   81114      24   81120   81117      25   81126   81123      24
   81129   81123      24   81129   81126      25   81135   81132      24   81138
   81132      24   81138   81135      25   81144   81141      24   81147   81141
      24   81147   81144      25   81153   81150      24   81156   81150      24
   81156   81153      25   81162   81159      24   81165   81159      24   81165
   81162      25   81171   81168      24   81174   81168      24   81174   81171
      25   81180   81177      24   81183   81177      24   81183   81180      25
   81189   81186      24   81192   81186      24   81192   81189      25   81198
   81195      24   81201   81195      24   81201   81198      25   81207   81204
      24   81210   81204      24   81210   81207      25   81216   81213      24
   81219   81213      24   81219   81216      25   81225   81222      24   81228
   81222      24   81228   81225      25   81234   81231      24   81237   81231
      24   81237   81234      25   81243   81240      24   81246   81240      24
   81246   81243      25   81252   81249      24   81255   81249      24   81255
   81252      25   81261   81258      24   81264   81258      24   81264   81261
      25   81270   81267      24   81273   81267      24   81273   81270      25
   81279   81276      24   81282   81276      24   81282   81279      25   81288
   81285      24   81291   81285      24   81291   81288      25   81297   81294
      24   81300   81294      24   81300   81297      25   81306   81303      24
   81309   81303      24   81309   81306      25   81315   81312      24   81318
   81312      24   81318   81315      25   81324   81321      24   81327   81321
      24   81327   81324      25   81333   81330      24   81336   81330      24
   81336   81333      25   81342   81339      24   81345   81339      24   81345
   81342      25   81351   81348      24   81354   81348      24   81354   81351
      25   81360   81357      24   81363   81357      24   81363   81360      25
   81369   81366      24   81372   81366      24   81372   81369      25   81378
   81375      24   81381   81375      24   81381   81378      25   81387   81384
      24   81390   81384      24   81390   81387      25   81396   81393      24
   81399   81393      24   81399   81396      25   81405   81402      24   81408
   81402      24   81408   81405      25   81414   81411      24   81417   81411
      24   81417   81414      25   81423   81420      24   81426   81420      24
   81426   81423      25   81432   81429      24   81435   81429      24   81435
   81432      25   81441   81438      24   81444   81438      24   81444   81441
      25   81450   81447      24   81453   81447      24   81453   81450      25
   81459   81456      24   81462   81456      24   81462   81459      25   81468
   81465      24   81471   81465      24   81471   81468      25   81477   81474
      24   81480   81474      24   81480   81477      25   81486   81483      24
   81489   81483      24   81489   81486      25   81495   81492      24   81498
   81492      24   81498   81495      25   81504   81501      24   81507   81501
      24   81507   81504      25   81513   81510      24   81516   81510      24
   81516   81513      25   81522   81519      24   81525   81519      24   81525
   81522      25   81531   81528      24   81534   81528      24   81534   81531
      25   81540   81537      24   81543   81537      24   81543   81540      25
   81549   81546      24   81552   81546      24   81552   81549      25   81558
   81555      24   81561   81555      24   81561   81558      25   81567   81564
      24   81570   81564      24   81570   81567      25   81576   81573      24
   81579   81573      24   81579   81576      25   81585   81582      24   81588
   81582      24   81588   81585      25   81594   81591      24   81597   81591
      24   81597   81594      25   81603   81600      24   81606   81600      24
   81606   81603      25   81612   81609      24   81615   81609      24   81615
   81612      25   81621   81618      24   81624   81618      24   81624   81621
      25   81630   81627      24   81633   81627      24   81633   81630      25
   81639   81636      24   81642   81636      24   81642   81639      25   81648
   81645      24   81651   81645      24   81651   81648      25   81657   81654
      24   81660   81654      24   81660   81657      25   81666   81663      24
   81669   81663      24   81669   81666      25   81675   81672      24   81678
   81672      24   81678   81675      25   81684   81681      24   81687   81681
      24   81687   81684      25   81693   81690      24   81696   81690      24
   81696   81693      25   81702   81699      24   81705   81699      24   81705
   81702      25   81711   81708      24   81714   81708      24   81714   81711
      25   81720   81717      24   81723   81717      24   81723   81720      25
   81729   81726      24   81732   81726      24   81732   81729      25   81738
   81735      24   81741   81735      24   81741   81738      25   81747   81744
      24   81750   81744      24   81750   81747      25   81756   81753      24
   81759   81753      24   81759   81756      25   81765   81762      24   81768
   81762      24   81768   81765      25   81774   81771      24   81777   81771
      24   81777   81774      25   81783   81780      24   81786   81780      24
   81786   81783      25   81792   81789      24   81795   81789      24   81795
   81792      25   81801   81798      24   81804   81798      24   81804   81801
      25   81810   81807      24   81813   81807      24   81813   81810      25
   81819   81816      24   81822   81816      24   81822   81819      25   81828
   81825      24   81831   81825      24   81831   81828      25   81837   81834
      24   81840   81834      24   81840   81837      25   81846   81843      24
   81849   81843      24   81849   81846      25   81855   81852      24   81858
   81852      24   81858   81855      25   81864   81861      24   81867   81861
      24   81867   81864      25   81873   81870      24   81876   81870      24
   81876   81873      25   81882   81879      24   81885   81879      24   81885
   81882      25   81891   81888      24   81894   81888      24   81894   81891
      25   81900   81897      24   81903   81897      24   81903   81900      25
   81909   81906      24   81912   81906      24   81912   81909      25   81918
   81915      24   81921   81915      24   81921   81918      25   81927   81924
      24   81930   81924      24   81930   81927      25   81936   81933      24
   81939   81933      24   81939   81936      25   81945   81942      24   81948
   81942      24   81948   81945      25   81954   81951      24   81957   81951
      24   81957   81954      25   81963   81960      24   81966   81960      24
   81966   81963      25   81972   81969      24   81975   81969      24   81975
   81972      25   81981   81978      24   81984   81978      24   81984   81981
      25   81990   81987      24   81993   81987      24   81993   81990      25
   81999   81996      24   82002   81996      24   82002   81999      25   82008
   82005      24   82011   82005      24   82011   82008      25   82017   82014
      24   82020   82014      24   82020   82017      25   82026   82023      24
   82029   82023      24   82029   82026      25   82035   82032      24   82038
   82032      24   82038   82035      25   82044   82041      24   82047   82041
      24   82047   82044      25   82053   82050      24   82056   82050      24
   82056   82053      25   82062   82059      24   82065   82059      24   82065
   82062      25   82071   82068      24   82074   82068      24   82074   82071
      25   82080   82077      24   82083   82077      24   82083   82080      25
   82089   82086      24   82092   82086      24   82092   82089      25   82098
   82095      24   82101   82095      24   82101   82098      25   82107   82104
      24   82110   82104      24   82110   82107      25   82116   82113      24
   82119   82113      24   82119   82116      25   82125   82122      24   82128
   82122      24   82128   82125      25   82134   82131      24   82137   82131
      24   82137   82134      25   82143   82140      24   82146   82140      24
   82146   82143      25   82152   82149      24   82155   82149      24   82155
   82152      25   82161   82158      24   82164   82158      24   82164   82161
      25   82170   82167      24   82173   82167      24   82173   82170      25
   82179   82176      24   82182   82176      24   82182   82179      25   82188
   82185      24   82191   82185      24   82191   82188      25   82197   82194
      24   82200   82194      24   82200   82197      25   82206   82203      24
   82209   82203      24   82209   82206      25   82215   82212      24   82218
   82212      24   82218   82215      25   82224   82221      24   82227   82221
      24   82227   82224      25   82233   82230      24   82236   82230      24
   82236   82233      25   82242   82239      24   82245   82239      24   82245
   82242      25   82251   82248      24   82254   82248      24   82254   82251
      25   82260   82257      24   82263   82257      24   82263   82260      25
   82269   82266      24   82272   82266      24   82272   82269      25   82278
   82275      24   82281   82275      24   82281   82278      25   82287   82284
      24   82290   82284      24   82290   82287      25   82296   82293      24
   82299   82293      24   82299   82296      25   82305   82302      24   82308
   82302      24   82308   82305      25   82314   82311      24   82317   82311
      24   82317   82314      25   82323   82320      24   82326   82320      24
   82326   82323      25   82332   82329      24   82335   82329      24   82335
   82332      25   82341   82338      24   82344   82338      24   82344   82341
      25   82350   82347      24   82353   82347      24   82353   82350      25
   82359   82356      24   82362   82356      24   82362   82359      25   82368
   82365      24   82371   82365      24   82371   82368      25   82377   82374
      24   82380   82374      24   82380   82377      25   82386   82383      24
   82389   82383      24   82389   82386      25   82395   82392      24   82398
   82392      24   82398   82395      25   82404   82401      24   82407   82401
      24   82407   82404      25   82413   82410      24   82416   82410      24
   82416   82413      25   82422   82419      24   82425   82419      24   82425
   82422      25   82431   82428      24   82434   82428      24   82434   82431
      25   82440   82437      24   82443   82437      24   82443   82440      25
   82449   82446      24   82452   82446      24   82452   82449      25   82458
   82455      24   82461   82455      24   82461   82458      25   82467   82464
      24   82470   82464      24   82470   82467      25   82476   82473      24
   82479   82473      24   82479   82476      25   82485   82482      24   82488
   82482      24   82488   82485      25   82494   82491      24   82497   82491
      24   82497   82494      25   82503   82500      24   82506   82500      24
   82506   82503      25   82512   82509      24   82515   82509      24   82515
   82512      25   82521   82518      24   82524   82518      24   82524   82521
      25   82530   82527      24   82533   82527      24   82533   82530      25
   82539   82536      24   82542   82536      24   82542   82539      25   82548
   82545      24   82551   82545      24   82551   82548      25   82557   82554
      24   82560   82554      24   82560   82557      25   82566   82563      24
   82569   82563      24   82569   82566      25   82575   82572      24   82578
   82572      24   82578   82575      25   82584   82581      24   82587   82581
      24   82587   82584      25   82593   82590      24   82596   82590      24
   82596   82593      25   82602   82599      24   82605   82599      24   82605
   82602      25   82611   82608      24   82614   82608      24   82614   82611
      25   82620   82617      24   82623   82617      24   82623   82620      25
   82629   82626      24   82632   82626      24   82632   82629      25   82638
   82635      24   82641   82635      24   82641   82638      25   82647   82644
      24   82650   82644      24   82650   82647      25   82656   82653      24
   82659   82653      24   82659   82656      25   82665   82662      24   82668
   82662      24   82668   82665      25   82674   82671      24   82677   82671
      24   82677   82674      25   82683   82680      24   82686   82680      24
   82686   82683      25   82692   82689      24   82695   82689      24   82695
   82692      25   82701   82698      24   82704   82698      24   82704   82701
      25   82710   82707      24   82713   82707      24   82713   82710      25
   82719   82716      24   82722   82716      24   82722   82719      25   82728
   82725      24   82731   82725      24   82731   82728      25   82737   82734
      24   82740   82734      24   82740   82737      25   82746   82743      24
   82749   82743      24   82749   82746      25   82755   82752      24   82758
   82752      24   82758   82755      25   82764   82761      24   82767   82761
      24   82767   82764      25   82773   82770      24   82776   82770      24
   82776   82773      25   82782   82779      24   82785   82779      24   82785
   82782      25   82791   82788      24   82794   82788      24   82794   82791
      25   82800   82797      24   82803   82797      24   82803   82800      25
   82809   82806      24   82812   82806      24   82812   82809      25   82818
   82815      24   82821   82815      24   82821   82818      25   82827   82824
      24   82830   82824      24   82830   82827      25   82836   82833      24
   82839   82833      24   82839   82836      25   82845   82842      24   82848
   82842      24   82848   82845      25   82854   82851      24   82857   82851
      24   82857   82854      25   82863   82860      24   82866   82860      24
   82866   82863      25   82872   82869      24   82875   82869      24   82875
   82872      25   82881   82878      24   82884   82878      24   82884   82881
      25   82890   82887      24   82893   82887      24   82893   82890      25
   82899   82896      24   82902   82896      24   82902   82899      25   82908
   82905      24   82911   82905      24   82911   82908      25   82917   82914
      24   82920   82914      24   82920   82917      25   82926   82923      24
   82929   82923      24   82929   82926      25   82935   82932      24   82938
   82932      24   82938   82935      25   82944   82941      24   82947   82941
      24   82947   82944      25   82953   82950      24   82956   82950      24
   82956   82953      25   82962   82959      24   82965   82959      24   82965
   82962      25   82971   82968      24   82974   82968      24   82974   82971
      25   82980   82977      24   82983   82977      24   82983   82980      25
   82989   82986      24   82992   82986      24   82992   82989      25   82998
   82995      24   83001   82995      24   83001   82998      25   83007   83004
      24   83010   83004      24   83010   83007      25   83016   83013      24
   83019   83013      24   83019   83016      25   83025   83022      24   83028
   83022      24   83028   83025      25   83034   83031      24   83037   83031
      24   83037   83034      25   83043   83040      24   83046   83040      24
   83046   83043      25   83052   83049      24   83055   83049      24   83055
   83052      25   83061   83058      24   83064   83058      24   83064   83061
      25   83070   83067      24   83073   83067      24   83073   83070      25
   83079   83076      24   83082   83076      24   83082   83079      25   83088
   83085      24   83091   83085      24   83091   83088      25   83097   83094
      24   83100   83094      24   83100   83097      25   83106   83103      24
   83109   83103      24   83109   83106      25   83115   83112      24   83118
   83112      24   83118   83115      25   83124   83121      24   83127   83121
      24   83127   83124      25   83133   83130      24   83136   83130      24
   83136   83133      25   83142   83139      24   83145   83139      24   83145
   83142      25   83151   83148      24   83154   83148      24   83154   83151
      25   83160   83157      24   83163   83157      24   83163   83160      25
   83169   83166      24   83172   83166      24   83172   83169      25   83178
   83175      24   83181   83175      24   83181   83178      25   83187   83184
      24   83190   83184      24   83190   83187      25   83196   83193      24
   83199   83193      24   83199   83196      25   83205   83202      24   83208
   83202      24   83208   83205      25   83214   83211      24   83217   83211
      24   83217   83214      25   83223   83220      24   83226   83220      24
   83226   83223      25   83232   83229      24   83235   83229      24   83235
   83232      25   83241   83238      24   83244   83238      24   83244   83241
      25   83250   83247      24   83253   83247      24   83253   83250      25
   83259   83256      24   83262   83256      24   83262   83259      25   83268
   83265      24   83271   83265      24   83271   83268      25   83277   83274
      24   83280   83274      24   83280   83277      25   83286   83283      24
   83289   83283      24   83289   83286      25   83295   83292      24   83298
   83292      24   83298   83295      25   83304   83301      24   83307   83301
      24   83307   83304      25   83313   83310      24   83316   83310      24
   83316   83313      25   83322   83319      24   83325   83319      24   83325
   83322      25   83331   83328      24   83334   83328      24   83334   83331
      25   83340   83337      24   83343   83337      24   83343   83340      25
   83349   83346      24   83352   83346      24   83352   83349      25   83358
   83355      24   83361   83355      24   83361   83358      25   83367   83364
      24   83370   83364      24   83370   83367      25   83376   83373      24
   83379   83373      24   83379   83376      25   83385   83382      24   83388
   83382      24   83388   83385      25   83394   83391      24   83397   83391
      24   83397   83394      25   83403   83400      24   83406   83400      24
   83406   83403      25   83412   83409      24   83415   83409      24   83415
   83412      25   83421   83418      24   83424   83418      24   83424   83421
      25   83430   83427      24   83433   83427      24   83433   83430      25
   83439   83436      24   83442   83436      24   83442   83439      25   83448
   83445      24   83451   83445      24   83451   83448      25   83457   83454
      24   83460   83454      24   83460   83457      25   83466   83463      24
   83469   83463      24   83469   83466      25   83475   83472      24   83478
   83472      24   83478   83475      25   83484   83481      24   83487   83481
      24   83487   83484      25   83493   83490      24   83496   83490      24
   83496   83493      25   83502   83499      24   83505   83499      24   83505
   83502      25   83511   83508      24   83514   83508      24   83514   83511
      25   83520   83517      24   83523   83517      24   83523   83520      25
   83529   83526      24   83532   83526      24   83532   83529      25   83538
   83535      24   83541   83535      24   83541   83538      25   83547   83544
      24   83550   83544      24   83550   83547      25   83556   83553      24
   83559   83553      24   83559   83556      25   83565   83562      24   83568
   83562      24   83568   83565      25   83574   83571      24   83577   83571
      24   83577   83574      25   83583   83580      24   83586   83580      24
   83586   83583      25   83592   83589      24   83595   83589      24   83595
   83592      25   83601   83598      24   83604   83598      24   83604   83601
      25   83610   83607      24   83613   83607      24   83613   83610      25
   83619   83616      24   83622   83616      24   83622   83619      25   83628
   83625      24   83631   83625      24   83631   83628      25   83637   83634
      24   83640   83634      24   83640   83637      25   83646   83643      24
   83649   83643      24   83649   83646      25   83655   83652      24   83658
   83652      24   83658   83655      25   83664   83661      24   83667   83661
      24   83667   83664      25   83673   83670      24   83676   83670      24
   83676   83673      25   83682   83679      24   83685   83679      24   83685
   83682      25   83691   83688      24   83694   83688      24   83694   83691
      25   83700   83697      24   83703   83697      24   83703   83700      25
   83709   83706      24   83712   83706      24   83712   83709      25   83718
   83715      24   83721   83715      24   83721   83718      25   83727   83724
      24   83730   83724      24   83730   83727      25   83736   83733      24
   83739   83733      24   83739   83736      25   83745   83742      24   83748
   83742      24   83748   83745      25   83754   83751      24   83757   83751
      24   83757   83754      25   83763   83760      24   83766   83760      24
   83766   83763      25   83772   83769      24   83775   83769      24   83775
   83772      25   83781   83778      24   83784   83778      24   83784   83781
      25   83790   83787      24   83793   83787      24   83793   83790      25
   83799   83796      24   83802   83796      24   83802   83799      25   83808
   83805      24   83811   83805      24   83811   83808      25   83817   83814
      24   83820   83814      24   83820   83817      25   83826   83823      24
   83829   83823      24   83829   83826      25   83835   83832      24   83838
   83832      24   83838   83835      25   83844   83841      24   83847   83841
      24   83847   83844      25   83853   83850      24   83856   83850      24
   83856   83853      25   83862   83859      24   83865   83859      24   83865
   83862      25   83871   83868      24   83874   83868      24   83874   83871
      25   83880   83877      24   83883   83877      24   83883   83880      25
   83889   83886      24   83892   83886      24   83892   83889      25   83898
   83895      24   83901   83895      24   83901   83898      25   83907   83904
      24   83910   83904      24   83910   83907      25   83916   83913      24
   83919   83913      24   83919   83916      25   83925   83922      24   83928
   83922      24   83928   83925      25   83934   83931      24   83937   83931
      24   83937   83934      25   83943   83940      24   83946   83940      24
   83946   83943      25   83952   83949      24   83955   83949      24   83955
   83952      25   83961   83958      24   83964   83958      24   83964   83961
      25   83970   83967      24   83973   83967      24   83973   83970      25
   83979   83976      24   83982   83976      24   83982   83979      25   83988
   83985      24   83991   83985      24   83991   83988      25   83997   83994
      24   84000   83994      24   84000   83997      25   84006   84003      24
   84009   84003      24   84009   84006      25   84015   84012      24   84018
   84012      24   84018   84015      25   84024   84021      24   84027   84021
      24   84027   84024      25   84033   84030      24   84036   84030      24
   84036   84033      25   84042   84039      24   84045   84039      24   84045
   84042      25   84051   84048      24   84054   84048      24   84054   84051
      25   84060   84057      24   84063   84057      24   84063   84060      25
   84069   84066      24   84072   84066      24   84072   84069      25   84078
   84075      24   84081   84075      24   84081   84078      25   84087   84084
      24   84090   84084      24   84090   84087      25   84096   84093      24
   84099   84093      24   84099   84096      25   84105   84102      24   84108
   84102      24   84108   84105      25   84114   84111      24   84117   84111
      24   84117   84114      25   84123   84120      24   84126   84120      24
   84126   84123      25   84132   84129      24   84135   84129      24   84135
   84132      25   84141   84138      24   84144   84138      24   84144   84141
      25   84150   84147      24   84153   84147      24   84153   84150      25
   84159   84156      24   84162   84156      24   84162   84159      25   84168
   84165      24   84171   84165      24   84171   84168      25   84177   84174
      24   84180   84174      24   84180   84177      25   84186   84183      24
   84189   84183      24   84189   84186      25   84195   84192      24   84198
   84192      24   84198   84195      25   84204   84201      24   84207   84201
      24   84207   84204      25   84213   84210      24   84216   84210      24
   84216   84213      25   84222   84219      24   84225   84219      24   84225
   84222      25   84231   84228      24   84234   84228      24   84234   84231
      25   84240   84237      24   84243   84237      24   84243   84240      25
   84249   84246      24   84252   84246      24   84252   84249      25   84258
   84255      24   84261   84255      24   84261   84258      25   84267   84264
      24   84270   84264      24   84270   84267      25   84276   84273      24
   84279   84273      24   84279   84276      25   84285   84282      24   84288
   84282      24   84288   84285      25   84294   84291      24   84297   84291
      24   84297   84294      25   84303   84300      24   84306   84300      24
   84306   84303      25   84312   84309      24   84315   84309      24   84315
   84312      25   84321   84318      24   84324   84318      24   84324   84321
      25   84330   84327      24   84333   84327      24   84333   84330      25
   84339   84336      24   84342   84336      24   84342   84339      25   84348
   84345      24   84351   84345      24   84351   84348      25   84357   84354
      24   84360   84354      24   84360   84357      25   84366   84363      24
   84369   84363      24   84369   84366      25   84375   84372      24   84378
   84372      24   84378   84375      25   84384   84381      24   84387   84381
      24   84387   84384      25   84393   84390      24   84396   84390      24
   84396   84393      25   84402   84399      24   84405   84399      24   84405
   84402      25   84411   84408      24   84414   84408      24   84414   84411
      25   84420   84417      24   84423   84417      24   84423   84420      25
   84429   84426      24   84432   84426      24   84432   84429      25   84438
   84435      24   84441   84435      24   84441   84438      25   84447   84444
      24   84450   84444      24   84450   84447      25   84456   84453      24
   84459   84453      24   84459   84456      25   84465   84462      24   84468
   84462      24   84468   84465      25   84474   84471      24   84477   84471
      24   84477   84474      25   84483   84480      24   84486   84480      24
   84486   84483      25   84492   84489      24   84495   84489      24   84495
   84492      25   84501   84498      24   84504   84498      24   84504   84501
      25   84510   84507      24   84513   84507      24   84513   84510      25
   84519   84516      24   84522   84516      24   84522   84519      25   84528
   84525      24   84531   84525      24   84531   84528      25   84537   84534
      24   84540   84534      24   84540   84537      25   84546   84543      24
   84549   84543      24   84549   84546      25   84555   84552      24   84558
   84552      24   84558   84555      25   84564   84561      24   84567   84561
      24   84567   84564      25   84573   84570      24   84576   84570      24
   84576   84573      25   84582   84579      24   84585   84579      24   84585
   84582      25   84591   84588      24   84594   84588      24   84594   84591
      25   84600   84597      24   84603   84597      24   84603   84600      25
   84609   84606      24   84612   84606      24   84612   84609      25   84618
   84615      24   84621   84615      24   84621   84618      25   84627   84624
      24   84630   84624      24   84630   84627      25   84636   84633      24
   84639   84633      24   84639   84636      25   84645   84642      24   84648
   84642      24   84648   84645      25   84654   84651      24   84657   84651
      24   84657   84654      25   84663   84660      24   84666   84660      24
   84666   84663      25   84672   84669      24   84675   84669      24   84675
   84672      25   84681   84678      24   84684   84678      24   84684   84681
      25   84690   84687      24   84693   84687      24   84693   84690      25
   84699   84696      24   84702   84696      24   84702   84699      25   84708
   84705      24   84711   84705      24   84711   84708      25   84717   84714
      24   84720   84714      24   84720   84717      25   84726   84723      24
   84729   84723      24   84729   84726      25   84735   84732      24   84738
   84732      24   84738   84735      25   84744   84741      24   84747   84741
      24   84747   84744      25   84753   84750      24   84756   84750      24
   84756   84753      25   84762   84759      24   84765   84759      24   84765
   84762      25   84771   84768      24   84774   84768      24   84774   84771
      25   84780   84777      24   84783   84777      24   84783   84780      25
   84789   84786      24   84792   84786      24   84792   84789      25   84798
   84795      24   84801   84795      24   84801   84798      25   84807   84804
      24   84810   84804      24   84810   84807      25   84816   84813      24
   84819   84813      24   84819   84816      25   84825   84822      24   84828
   84822      24   84828   84825      25   84834   84831      24   84837   84831
      24   84837   84834      25   84843   84840      24   84846   84840      24
   84846   84843      25   84852   84849      24   84855   84849      24   84855
   84852      25   84861   84858      24   84864   84858      24   84864   84861
      25   84870   84867      24   84873   84867      24   84873   84870      25
   84879   84876      24   84882   84876      24   84882   84879      25   84888
   84885      24   84891   84885      24   84891   84888      25   84897   84894
      24   84900   84894      24   84900   84897      25   84906   84903      24
   84909   84903      24   84909   84906      25   84915   84912      24   84918
   84912      24   84918   84915      25   84924   84921      24   84927   84921
      24   84927   84924      25   84933   84930      24   84936   84930      24
   84936   84933      25   84942   84939      24   84945   84939      24   84945
   84942      25   84951   84948      24   84954   84948      24   84954   84951
      25   84960   84957      24   84963   84957      24   84963   84960      25
   84969   84966      24   84972   84966      24   84972   84969      25   84978
   84975      24   84981   84975      24   84981   84978      25   84987   84984
      24   84990   84984      24   84990   84987      25   84996   84993      24
   84999   84993      24   84999   84996      25   85005   85002      24   85008
   85002      24   85008   85005      25   85014   85011      24   85017   85011
      24   85017   85014      25   85023   85020      24   85026   85020      24
   85026   85023      25   85032   85029      24   85035   85029      24   85035
   85032      25   85041   85038      24   85044   85038      24   85044   85041
      25   85050   85047      24   85053   85047      24   85053   85050      25
   85059   85056      24   85062   85056      24   85062   85059      25   85068
   85065      24   85071   85065      24   85071   85068      25   85077   85074
      24   85080   85074      24   85080   85077      25   85086   85083      24
   85089   85083      24   85089   85086      25   85095   85092      24   85098
   85092      24   85098   85095      25   85104   85101      24   85107   85101
      24   85107   85104      25   85113   85110      24   85116   85110      24
   85116   85113      25   85122   85119      24   85125   85119      24   85125
   85122      25   85131   85128      24   85134   85128      24   85134   85131
      25   85140   85137      24   85143   85137      24   85143   85140      25
   85149   85146      24   85152   85146      24   85152   85149      25   85158
   85155      24   85161   85155      24   85161   85158      25   85167   85164
      24   85170   85164      24   85170   85167      25   85176   85173      24
   85179   85173      24   85179   85176      25   85185   85182      24   85188
   85182      24   85188   85185      25   85194   85191      24   85197   85191
      24   85197   85194      25   85203   85200      24   85206   85200      24
   85206   85203      25   85212   85209      24   85215   85209      24   85215
   85212      25   85221   85218      24   85224   85218      24   85224   85221
      25   85230   85227      24   85233   85227      24   85233   85230      25
   85239   85236      24   85242   85236      24   85242   85239      25   85248
   85245      24   85251   85245      24   85251   85248      25   85257   85254
      24   85260   85254      24   85260   85257      25   85266   85263      24
   85269   85263      24   85269   85266      25   85275   85272      24   85278
   85272      24   85278   85275      25   85284   85281      24   85287   85281
      24   85287   85284      25   85293   85290      24   85296   85290      24
   85296   85293      25   85302   85299      24   85305   85299      24   85305
   85302      25   85311   85308      24   85314   85308      24   85314   85311
      25   85320   85317      24   85323   85317      24   85323   85320      25
   85329   85326      24   85332   85326      24   85332   85329      25   85338
   85335      24   85341   85335      24   85341   85338      25   85347   85344
      24   85350   85344      24   85350   85347      25   85356   85353      24
   85359   85353      24   85359   85356      25   85365   85362      24   85368
   85362      24   85368   85365      25   85374   85371      24   85377   85371
      24   85377   85374      25   85383   85380      24   85386   85380      24
   85386   85383      25   85392   85389      24   85395   85389      24   85395
   85392      25   85401   85398      24   85404   85398      24   85404   85401
      25   85410   85407      24   85413   85407      24   85413   85410      25
   85419   85416      24   85422   85416      24   85422   85419      25   85428
   85425      24   85431   85425      24   85431   85428      25   85437   85434
      24   85440   85434      24   85440   85437      25   85446   85443      24
   85449   85443      24   85449   85446      25   85455   85452      24   85458
   85452      24   85458   85455      25   85464   85461      24   85467   85461
      24   85467   85464      25   85473   85470      24   85476   85470      24
   85476   85473      25   85482   85479      24   85485   85479      24   85485
   85482      25   85491   85488      24   85494   85488      24   85494   85491
      25   85500   85497      24   85503   85497      24   85503   85500      25
   85509   85506      24   85512   85506      24   85512   85509      25   85518
   85515      24   85521   85515      24   85521   85518      25   85527   85524
      24   85530   85524      24   85530   85527      25   85536   85533      24
   85539   85533      24   85539   85536      25   85545   85542      24   85548
   85542      24   85548   85545      25   85554   85551      24   85557   85551
      24   85557   85554      25   85563   85560      24   85566   85560      24
   85566   85563      25   85572   85569      24   85575   85569      24   85575
   85572      25   85581   85578      24   85584   85578      24   85584   85581
      25   85590   85587      24   85593   85587      24   85593   85590      25
   85599   85596      24   85602   85596      24   85602   85599      25   85608
   85605      24   85611   85605      24   85611   85608      25   85617   85614
      24   85620   85614      24   85620   85617      25   85626   85623      24
   85629   85623      24   85629   85626      25   85635   85632      24   85638
   85632      24   85638   85635      25   85644   85641      24   85647   85641
      24   85647   85644      25   85653   85650      24   85656   85650      24
   85656   85653      25   85662   85659      24   85665   85659      24   85665
   85662      25   85671   85668      24   85674   85668      24   85674   85671
      25   85680   85677      24   85683   85677      24   85683   85680      25
   85689   85686      24   85692   85686      24   85692   85689      25   85698
   85695      24   85701   85695      24   85701   85698      25   85707   85704
      24   85710   85704      24   85710   85707      25   85716   85713      24
   85719   85713      24   85719   85716      25   85725   85722      24   85728
   85722      24   85728   85725      25   85734   85731      24   85737   85731
      24   85737   85734      25   85743   85740      24   85746   85740      24
   85746   85743      25   85752   85749      24   85755   85749      24   85755
   85752      25   85761   85758      24   85764   85758      24   85764   85761
      25   85770   85767      24   85773   85767      24   85773   85770      25
   85779   85776      24   85782   85776      24   85782   85779      25   85788
   85785      24   85791   85785      24   85791   85788      25   85797   85794
      24   85800   85794      24   85800   85797      25   85806   85803      24
   85809   85803      24   85809   85806      25   85815   85812      24   85818
   85812      24   85818   85815      25   85824   85821      24   85827   85821
      24   85827   85824      25   85833   85830      24   85836   85830      24
   85836   85833      25   85842   85839      24   85845   85839      24   85845
   85842      25   85851   85848      24   85854   85848      24   85854   85851
      25   85860   85857      24   85863   85857      24   85863   85860      25
   85869   85866      24   85872   85866      24   85872   85869      25   85878
   85875      24   85881   85875      24   85881   85878      25   85887   85884
      24   85890   85884      24   85890   85887      25   85896   85893      24
   85899   85893      24   85899   85896      25   85905   85902      24   85908
   85902      24   85908   85905      25   85914   85911      24   85917   85911
      24   85917   85914      25   85923   85920      24   85926   85920      24
   85926   85923      25   85932   85929      24   85935   85929      24   85935
   85932      25   85941   85938      24   85944   85938      24   85944   85941
      25   85950   85947      24   85953   85947      24   85953   85950      25
   85959   85956      24   85962   85956      24   85962   85959      25   85968
   85965      24   85971   85965      24   85971   85968      25   85977   85974
      24   85980   85974      24   85980   85977      25   85986   85983      24
   85989   85983      24   85989   85986      25   85995   85992      24   85998
   85992      24   85998   85995      25   86004   86001      24   86007   86001
      24   86007   86004      25   86013   86010      24   86016   86010      24
   86016   86013      25   86022   86019      24   86025   86019      24   86025
   86022      25   86031   86028      24   86034   86028      24   86034   86031
      25   86040   86037      24   86043   86037      24   86043   86040      25
   86049   86046      24   86052   86046      24   86052   86049      25   86058
   86055      24   86061   86055      24   86061   86058      25   86067   86064
      24   86070   86064      24   86070   86067      25   86076   86073      24
   86079   86073      24   86079   86076      25   86085   86082      24   86088
   86082      24   86088   86085      25   86094   86091      24   86097   86091
      24   86097   86094      25   86103   86100      24   86106   86100      24
   86106   86103      25   86112   86109      24   86115   86109      24   86115
   86112      25   86121   86118      24   86124   86118      24   86124   86121
      25   86130   86127      24   86133   86127      24   86133   86130      25
   86139   86136      24   86142   86136      24   86142   86139      25   86148
   86145      24   86151   86145      24   86151   86148      25   86157   86154
      24   86160   86154      24   86160   86157      25   86166   86163      24
   86169   86163      24   86169   86166      25   86175   86172      24   86178
   86172      24   86178   86175      25   86184   86181      24   86187   86181
      24   86187   86184      25   86193   86190      24   86196   86190      24
   86196   86193      25   86202   86199      24   86205   86199      24   86205
   86202      25   86211   86208      24   86214   86208      24   86214   86211
      25   86220   86217      24   86223   86217      24   86223   86220      25
   86229   86226      24   86232   86226      24   86232   86229      25   86238
   86235      24   86241   86235      24   86241   86238      25   86247   86244
      24   86250   86244      24   86250   86247      25   86256   86253      24
   86259   86253      24   86259   86256      25   86265   86262      24   86268
   86262      24   86268   86265      25   86274   86271      24   86277   86271
      24   86277   86274      25   86283   86280      24   86286   86280      24
   86286   86283      25   86292   86289      24   86295   86289      24   86295
   86292      25   86301   86298      24   86304   86298      24   86304   86301
      25   86310   86307      24   86313   86307      24   86313   86310      25
   86319   86316      24   86322   86316      24   86322   86319      25   86328
   86325      24   86331   86325      24   86331   86328      25   86337   86334
      24   86340   86334      24   86340   86337      25   86346   86343      24
   86349   86343      24   86349   86346      25   86355   86352      24   86358
   86352      24   86358   86355      25   86364   86361      24   86367   86361
      24   86367   86364      25   86373   86370      24   86376   86370      24
   86376   86373      25   86382   86379      24   86385   86379      24   86385
   86382      25   86391   86388      24   86394   86388      24   86394   86391
      25   86400   86397      24   86403   86397      24   86403   86400      25
   86409   86406      24   86412   86406      24   86412   86409      25   86418
   86415      24   86421   86415      24   86421   86418      25   86427   86424
      24   86430   86424      24   86430   86427      25   86436   86433      24
   86439   86433      24   86439   86436      25   86445   86442      24   86448
   86442      24   86448   86445      25   86454   86451      24   86457   86451
      24   86457   86454      25   86463   86460      24   86466   86460      24
   86466   86463      25   86472   86469      24   86475   86469      24   86475
   86472      25   86481   86478      24   86484   86478      24   86484   86481
      25   86490   86487      24   86493   86487      24   86493   86490      25
   86499   86496      24   86502   86496      24   86502   86499      25   86508
   86505      24   86511   86505      24   86511   86508      25   86517   86514
      24   86520   86514      24   86520   86517      25   86526   86523      24
   86529   86523      24   86529   86526      25   86535   86532      24   86538
   86532      24   86538   86535      25   86544   86541      24   86547   86541
      24   86547   86544      25   86553   86550      24   86556   86550      24
   86556   86553      25   86562   86559      24   86565   86559      24   86565
   86562      25   86571   86568      24   86574   86568      24   86574   86571
      25   86580   86577      24   86583   86577      24   86583   86580      25
   86589   86586      24   86592   86586      24   86592   86589      25   86598
   86595      24   86601   86595      24   86601   86598      25   86607   86604
      24   86610   86604      24   86610   86607      25   86616   86613      24
   86619   86613      24   86619   86616      25   86625   86622      24   86628
   86622      24   86628   86625      25   86634   86631      24   86637   86631
      24   86637   86634      25   86643   86640      24   86646   86640      24
   86646   86643      25   86652   86649      24   86655   86649      24   86655
   86652      25   86661   86658      24   86664   86658      24   86664   86661
      25   86670   86667      24   86673   86667      24   86673   86670      25
   86679   86676      24   86682   86676      24   86682   86679      25   86688
   86685      24   86691   86685      24   86691   86688      25   86697   86694
      24   86700   86694      24   86700   86697      25   86706   86703      24
   86709   86703      24   86709   86706      25   86715   86712      24   86718
   86712      24   86718   86715      25   86724   86721      24   86727   86721
      24   86727   86724      25   86733   86730      24   86736   86730      24
   86736   86733      25   86742   86739      24   86745   86739      24   86745
   86742      25   86751   86748      24   86754   86748      24   86754   86751
      25   86760   86757      24   86763   86757      24   86763   86760      25
   86769   86766      24   86772   86766      24   86772   86769      25   86778
   86775      24   86781   86775      24   86781   86778      25   86787   86784
      24   86790   86784      24   86790   86787      25   86796   86793      24
   86799   86793      24   86799   86796      25   86805   86802      24   86808
   86802      24   86808   86805      25   86814   86811      24   86817   86811
      24   86817   86814      25   86823   86820      24   86826   86820      24
   86826   86823      25   86832   86829      24   86835   86829      24   86835
   86832      25   86841   86838      24   86844   86838      24   86844   86841
      25   86850   86847      24   86853   86847      24   86853   86850      25
   86859   86856      24   86862   86856      24   86862   86859      25   86868
   86865      24   86871   86865      24   86871   86868      25   86877   86874
      24   86880   86874      24   86880   86877      25   86886   86883      24
   86889   86883      24   86889   86886      25   86895   86892      24   86898
   86892      24   86898   86895      25   86904   86901      24   86907   86901
      24   86907   86904      25   86913   86910      24   86916   86910      24
   86916   86913      25   86922   86919      24   86925   86919      24   86925
   86922      25   86931   86928      24   86934   86928      24   86934   86931
      25   86940   86937      24   86943   86937      24   86943   86940      25
   86949   86946      24   86952   86946      24   86952   86949      25   86958
   86955      24   86961   86955      24   86961   86958      25   86967   86964
      24   86970   86964      24   86970   86967      25   86976   86973      24
   86979   86973      24   86979   86976      25   86985   86982      24   86988
   86982      24   86988   86985      25   86994   86991      24   86997   86991
      24   86997   86994      25   87003   87000      24   87006   87000      24
   87006   87003      25   87012   87009      24   87015   87009      24   87015
   87012      25   87021   87018      24   87024   87018      24   87024   87021
      25   87030   87027      24   87033   87027      24   87033   87030      25
   87039   87036      24   87042   87036      24   87042   87039      25   87048
   87045      24   87051   87045      24   87051   87048      25   87057   87054
      24   87060   87054      24   87060   87057      25   87066   87063      24
   87069   87063      24   87069   87066      25   87075   87072      24   87078
   87072      24   87078   87075      25   87084   87081      24   87087   87081
      24   87087   87084      25   87093   87090      24   87096   87090      24
   87096   87093      25   87102   87099      24   87105   87099      24   87105
   87102      25   87111   87108      24   87114   87108      24   87114   87111
      25   87120   87117      24   87123   87117      24   87123   87120      25
   87129   87126      24   87132   87126      24   87132   87129      25   87138
   87135      24   87141   87135      24   87141   87138      25   87147   87144
      24   87150   87144      24   87150   87147      25   87156   87153      24
   87159   87153      24   87159   87156      25   87165   87162      24   87168
   87162      24   87168   87165      25   87174   87171      24   87177   87171
      24   87177   87174      25   87183   87180      24   87186   87180      24
   87186   87183      25   87192   87189      24   87195   87189      24   87195
   87192      25   87201   87198      24   87204   87198      24   87204   87201
      25   87210   87207      24   87213   87207      24   87213   87210      25
   87219   87216      24   87222   87216      24   87222   87219      25   87228
   87225      24   87231   87225      24   87231   87228      25   87237   87234
      24   87240   87234      24   87240   87237      25   87246   87243      24
   87249   87243      24   87249   87246      25   87255   87252      24   87258
   87252      24   87258   87255      25   87264   87261      24   87267   87261
      24   87267   87264      25   87273   87270      24   87276   87270      24
   87276   87273      25   87282   87279      24   87285   87279      24   87285
   87282      25   87291   87288      24   87294   87288      24   87294   87291
      25   87300   87297      24   87303   87297      24   87303   87300      25
   87309   87306      24   87312   87306      24   87312   87309      25   87318
   87315      24   87321   87315      24   87321   87318      25   87327   87324
      24   87330   87324      24   87330   87327      25   87336   87333      24
   87339   87333      24   87339   87336      25   87345   87342      24   87348
   87342      24   87348   87345      25   87354   87351      24   87357   87351
      24   87357   87354      25   87363   87360      24   87366   87360      24
   87366   87363      25   87372   87369      24   87375   87369      24   87375
   87372      25   87381   87378      24   87384   87378      24   87384   87381
      25   87390   87387      24   87393   87387      24   87393   87390      25
   87399   87396      24   87402   87396      24   87402   87399      25   87408
   87405      24   87411   87405      24   87411   87408      25   87417   87414
      24   87420   87414      24   87420   87417      25   87426   87423      24
   87429   87423      24   87429   87426      25   87435   87432      24   87438
   87432      24   87438   87435      25   87444   87441      24   87447   87441
      24   87447   87444      25   87453   87450      24   87456   87450      24
   87456   87453      25   87462   87459      24   87465   87459      24   87465
   87462      25   87471   87468      24   87474   87468      24   87474   87471
      25   87480   87477      24   87483   87477      24   87483   87480      25
   87489   87486      24   87492   87486      24   87492   87489      25   87498
   87495      24   87501   87495      24   87501   87498      25   87507   87504
      24   87510   87504      24   87510   87507      25   87516   87513      24
   87519   87513      24   87519   87516      25   87525   87522      24   87528
   87522      24   87528   87525      25   87534   87531      24   87537   87531
      24   87537   87534      25   87543   87540      24   87546   87540      24
   87546   87543      25   87552   87549      24   87555   87549      24   87555
   87552      25   87561   87558      24   87564   87558      24   87564   87561
      25   87570   87567      24   87573   87567      24   87573   87570      25
   87579   87576      24   87582   87576      24   87582   87579      25   87588
   87585      24   87591   87585      24   87591   87588      25   87597   87594
      24   87600   87594      24   87600   87597      25   87606   87603      24
   87609   87603      24   87609   87606      25   87615   87612      24   87618
   87612      24   87618   87615      25   87624   87621      24   87627   87621
      24   87627   87624      25   87633   87630      24   87636   87630      24
   87636   87633      25   87642   87639      24   87645   87639      24   87645
   87642      25   87651   87648      24   87654   87648      24   87654   87651
      25   87660   87657      24   87663   87657      24   87663   87660      25
   87669   87666      24   87672   87666      24   87672   87669      25   87678
   87675      24   87681   87675      24   87681   87678      25   87687   87684
      24   87690   87684      24   87690   87687      25   87696   87693      24
   87699   87693      24   87699   87696      25   87705   87702      24   87708
   87702      24   87708   87705      25   87714   87711      24   87717   87711
      24   87717   87714      25   87723   87720      24   87726   87720      24
   87726   87723      25   87732   87729      24   87735   87729      24   87735
   87732      25   87741   87738      24   87744   87738      24   87744   87741
      25   87750   87747      24   87753   87747      24   87753   87750      25
   87759   87756      24   87762   87756      24   87762   87759      25   87768
   87765      24   87771   87765      24   87771   87768      25   87777   87774
      24   87780   87774      24   87780   87777      25   87786   87783      24
   87789   87783      24   87789   87786      25   87795   87792      24   87798
   87792      24   87798   87795      25   87804   87801      24   87807   87801
      24   87807   87804      25   87813   87810      24   87816   87810      24
   87816   87813      25   87822   87819      24   87825   87819      24   87825
   87822      25   87831   87828      24   87834   87828      24   87834   87831
      25   87840   87837      24   87843   87837      24   87843   87840      25
   87849   87846      24   87852   87846      24   87852   87849      25   87858
   87855      24   87861   87855      24   87861   87858      25   87867   87864
      24   87870   87864      24   87870   87867      25   87876   87873      24
   87879   87873      24   87879   87876      25   87885   87882      24   87888
   87882      24   87888   87885      25   87894   87891      24   87897   87891
      24   87897   87894      25   87903   87900      24   87906   87900      24
   87906   87903      25   87912   87909      24   87915   87909      24   87915
   87912      25   87921   87918      24   87924   87918      24   87924   87921
      25   87930   87927      24   87933   87927      24   87933   87930      25
   87939   87936      24   87942   87936      24   87942   87939      25   87948
   87945      24   87951   87945      24   87951   87948      25   87957   87954
      24   87960   87954      24   87960   87957      25   87966   87963      24
   87969   87963      24   87969   87966      25   87975   87972      24   87978
   87972      24   87978   87975      25   87984   87981      24   87987   87981
      24   87987   87984      25   87993   87990      24   87996   87990      24
   87996   87993      25   88002   87999      24   88005   87999      24   88005
   88002      25   88011   88008      24   88014   88008      24   88014   88011
      25   88020   88017      24   88023   88017      24   88023   88020      25
   88029   88026      24   88032   88026      24   88032   88029      25   88038
   88035      24   88041   88035      24   88041   88038      25   88047   88044
      24   88050   88044      24   88050   88047      25   88056   88053      24
   88059   88053      24   88059   88056      25   88065   88062      24   88068
   88062      24   88068   88065      25   88074   88071      24   88077   88071
      24   88077   88074      25   88083   88080      24   88086   88080      24
   88086   88083      25   88092   88089      24   88095   88089      24   88095
   88092      25   88101   88098      24   88104   88098      24   88104   88101
      25   88110   88107      24   88113   88107      24   88113   88110      25
   88119   88116      24   88122   88116      24   88122   88119      25   88128
   88125      24   88131   88125      24   88131   88128      25   88137   88134
      24   88140   88134      24   88140   88137      25   88146   88143      24
   88149   88143      24   88149   88146      25   88155   88152      24   88158
   88152      24   88158   88155      25   88164   88161      24   88167   88161
      24   88167   88164      25   88173   88170      24   88176   88170      24
   88176   88173      25   88182   88179      24   88185   88179      24   88185
   88182      25   88191   88188      24   88194   88188      24   88194   88191
      25   88200   88197      24   88203   88197      24   88203   88200      25
   88209   88206      24   88212   88206      24   88212   88209      25   88218
   88215      24   88221   88215      24   88221   88218      25   88227   88224
      24   88230   88224      24   88230   88227      25   88236   88233      24
   88239   88233      24   88239   88236      25   88245   88242      24   88248
   88242      24   88248   88245      25   88254   88251      24   88257   88251
      24   88257   88254      25   88263   88260      24   88266   88260      24
   88266   88263      25   88272   88269      24   88275   88269      24   88275
   88272      25   88281   88278      24   88284   88278      24   88284   88281
      25   88290   88287      24   88293   88287      24   88293   88290      25
   88299   88296      24   88302   88296      24   88302   88299      25   88308
   88305      24   88311   88305      24   88311   88308      25   88317   88314
      24   88320   88314      24   88320   88317      25   88326   88323      24
   88329   88323      24   88329   88326      25   88335   88332      24   88338
   88332      24   88338   88335      25   88344   88341      24   88347   88341
      24   88347   88344      25   88353   88350      24   88356   88350      24
   88356   88353      25   88362   88359      24   88365   88359      24   88365
   88362      25   88371   88368      24   88374   88368      24   88374   88371
      25   88380   88377      24   88383   88377      24   88383   88380      25
   88389   88386      24   88392   88386      24   88392   88389      25   88398
   88395      24   88401   88395      24   88401   88398      25   88407   88404
      24   88410   88404      24   88410   88407      25   88416   88413      24
   88419   88413      24   88419   88416      25   88425   88422      24   88428
   88422      24   88428   88425      25   88434   88431      24   88437   88431
      24   88437   88434      25   88443   88440      24   88446   88440      24
   88446   88443      25   88452   88449      24   88455   88449      24   88455
   88452      25   88461   88458      24   88464   88458      24   88464   88461
      25   88470   88467      24   88473   88467      24   88473   88470      25
   88479   88476      24   88482   88476      24   88482   88479      25   88488
   88485      24   88491   88485      24   88491   88488      25   88497   88494
      24   88500   88494      24   88500   88497      25   88506   88503      24
   88509   88503      24   88509   88506      25   88515   88512      24   88518
   88512      24   88518   88515      25   88524   88521      24   88527   88521
      24   88527   88524      25   88533   88530      24   88536   88530      24
   88536   88533      25   88542   88539      24   88545   88539      24   88545
   88542      25   88551   88548      24   88554   88548      24   88554   88551
      25   88560   88557      24   88563   88557      24   88563   88560      25
   88569   88566      24   88572   88566      24   88572   88569      25   88578
   88575      24   88581   88575      24   88581   88578      25   88587   88584
      24   88590   88584      24   88590   88587      25   88596   88593      24
   88599   88593      24   88599   88596      25   88605   88602      24   88608
   88602      24   88608   88605      25   88614   88611      24   88617   88611
      24   88617   88614      25   88623   88620      24   88626   88620      24
   88626   88623      25   88632   88629      24   88635   88629      24   88635
   88632      25   88641   88638      24   88644   88638      24   88644   88641
      25   88650   88647      24   88653   88647      24   88653   88650      25
   88659   88656      24   88662   88656      24   88662   88659      25   88668
   88665      24   88671   88665      24   88671   88668      25   88677   88674
      24   88680   88674      24   88680   88677      25   88686   88683      24
   88689   88683      24   88689   88686      25   88695   88692      24   88698
   88692      24   88698   88695      25   88704   88701      24   88707   88701
      24   88707   88704      25   88713   88710      24   88716   88710      24
   88716   88713      25   88722   88719      24   88725   88719      24   88725
   88722      25   88731   88728      24   88734   88728      24   88734   88731
      25   88740   88737      24   88743   88737      24   88743   88740      25
   88749   88746      24   88752   88746      24   88752   88749      25   88758
   88755      24   88761   88755      24   88761   88758      25   88767   88764
      24   88770   88764      24   88770   88767      25   88776   88773      24
   88779   88773      24   88779   88776      25   88785   88782      24   88788
   88782      24   88788   88785      25   88794   88791      24   88797   88791
      24   88797   88794      25   88803   88800      24   88806   88800      24
   88806   88803      25   88812   88809      24   88815   88809      24   88815
   88812      25   88821   88818      24   88824   88818      24   88824   88821
      25   88830   88827      24   88833   88827      24   88833   88830      25
   88839   88836      24   88842   88836      24   88842   88839      25   88848
   88845      24   88851   88845      24   88851   88848      25   88857   88854
      24   88860   88854      24   88860   88857      25   88866   88863      24
   88869   88863      24   88869   88866      25   88875   88872      24   88878
   88872      24   88878   88875      25   88884   88881      24   88887   88881
      24   88887   88884      25   88893   88890      24   88896   88890      24
   88896   88893      25   88902   88899      24   88905   88899      24   88905
   88902      25   88911   88908      24   88914   88908      24   88914   88911
      25   88920   88917      24   88923   88917      24   88923   88920      25
   88929   88926      24   88932   88926      24   88932   88929      25   88938
   88935      24   88941   88935      24   88941   88938      25   88947   88944
      24   88950   88944      24   88950   88947      25   88956   88953      24
   88959   88953      24   88959   88956      25   88965   88962      24   88968
   88962      24   88968   88965      25   88974   88971      24   88977   88971
      24   88977   88974      25   88983   88980      24   88986   88980      24
   88986   88983      25   88992   88989      24   88995   88989      24   88995
   88992      25   89001   88998      24   89004   88998      24   89004   89001
      25   89010   89007      24   89013   89007      24   89013   89010      25
   89019   89016      24   89022   89016      24   89022   89019      25   89028
   89025      24   89031   89025      24   89031   89028      25   89037   89034
      24   89040   89034      24   89040   89037      25   89046   89043      24
   89049   89043      24   89049   89046      25   89055   89052      24   89058
   89052      24   89058   89055      25   89064   89061      24   89067   89061
      24   89067   89064      25   89073   89070      24   89076   89070      24
   89076   89073      25   89082   89079      24   89085   89079      24   89085
   89082      25   89091   89088      24   89094   89088      24   89094   89091
      25   89100   89097      24   89103   89097      24   89103   89100      25
   89109   89106      24   89112   89106      24   89112   89109      25   89118
   89115      24   89121   89115      24   89121   89118      25   89127   89124
      24   89130   89124      24   89130   89127      25   89136   89133      24
   89139   89133      24   89139   89136      25   89145   89142      24   89148
   89142      24   89148   89145      25   89154   89151      24   89157   89151
      24   89157   89154      25   89163   89160      24   89166   89160      24
   89166   89163      25   89172   89169      24   89175   89169      24   89175
   89172      25   89181   89178      24   89184   89178      24   89184   89181
      25   89190   89187      24   89193   89187      24   89193   89190      25
   89199   89196      24   89202   89196      24   89202   89199      25   89208
   89205      24   89211   89205      24   89211   89208      25   89217   89214
      24   89220   89214      24   89220   89217      25   89226   89223      24
   89229   89223      24   89229   89226      25   89235   89232      24   89238
   89232      24   89238   89235      25   89244   89241      24   89247   89241
      24   89247   89244      25   89253   89250      24   89256   89250      24
   89256   89253      25   89262   89259      24   89265   89259      24   89265
   89262      25   89271   89268      24   89274   89268      24   89274   89271
      25   89280   89277      24   89283   89277      24   89283   89280      25
   89289   89286      24   89292   89286      24   89292   89289      25   89298
   89295      24   89301   89295      24   89301   89298      25   89307   89304
      24   89310   89304      24   89310   89307      25   89316   89313      24
   89319   89313      24   89319   89316      25   89325   89322      24   89328
   89322      24   89328   89325      25   89334   89331      24   89337   89331
      24   89337   89334      25   89343   89340      24   89346   89340      24
   89346   89343      25   89352   89349      24   89355   89349      24   89355
   89352      25   89361   89358      24   89364   89358      24   89364   89361
      25   89370   89367      24   89373   89367      24   89373   89370      25
   89379   89376      24   89382   89376      24   89382   89379      25   89388
   89385      24   89391   89385      24   89391   89388      25   89397   89394
      24   89400   89394      24   89400   89397      25   89406   89403      24
   89409   89403      24   89409   89406      25   89415   89412      24   89418
   89412      24   89418   89415      25   89424   89421      24   89427   89421
      24   89427   89424      25   89433   89430      24   89436   89430      24
   89436   89433      25   89442   89439      24   89445   89439      24   89445
   89442      25   89451   89448      24   89454   89448      24   89454   89451
      25   89460   89457      24   89463   89457      24   89463   89460      25
   89469   89466      24   89472   89466      24   89472   89469      25   89478
   89475      24   89481   89475      24   89481   89478      25   89487   89484
      24   89490   89484      24   89490   89487      25   89496   89493      24
   89499   89493      24   89499   89496      25   89505   89502      24   89508
   89502      24   89508   89505      25   89514   89511      24   89517   89511
      24   89517   89514      25   89523   89520      24   89526   89520      24
   89526   89523      25   89532   89529      24   89535   89529      24   89535
   89532      25   89541   89538      24   89544   89538      24   89544   89541
      25   89550   89547      24   89553   89547      24   89553   89550      25
   89559   89556      24   89562   89556      24   89562   89559      25   89568
   89565      24   89571   89565      24   89571   89568      25   89577   89574
      24   89580   89574      24   89580   89577      25   89586   89583      24
   89589   89583      24   89589   89586      25   89595   89592      24   89598
   89592      24   89598   89595      25   89604   89601      24   89607   89601
      24   89607   89604      25   89613   89610      24   89616   89610      24
   89616   89613      25   89622   89619      24   89625   89619      24   89625
   89622      25   89631   89628      24   89634   89628      24   89634   89631
      25   89640   89637      24   89643   89637      24   89643   89640      25
   89649   89646      24   89652   89646      24   89652   89649      25   89658
   89655      24   89661   89655      24   89661   89658      25   89667   89664
      24   89670   89664      24   89670   89667      25   89676   89673      24
   89679   89673      24   89679   89676      25   89685   89682      24   89688
   89682      24   89688   89685      25   89694   89691      24   89697   89691
      24   89697   89694      25   89703   89700      24   89706   89700      24
   89706   89703      25   89712   89709      24   89715   89709      24   89715
   89712      25   89721   89718      24   89724   89718      24   89724   89721
      25   89730   89727      24   89733   89727      24   89733   89730      25
   89739   89736      24   89742   89736      24   89742   89739      25   89748
   89745      24   89751   89745      24   89751   89748      25   89757   89754
      24   89760   89754      24   89760   89757      25   89766   89763      24
   89769   89763      24   89769   89766      25   89775   89772      24   89778
   89772      24   89778   89775      25   89784   89781      24   89787   89781
      24   89787   89784      25   89793   89790      24   89796   89790      24
   89796   89793      25   89802   89799      24   89805   89799      24   89805
   89802      25   89811   89808      24   89814   89808      24   89814   89811
      25   89820   89817      24   89823   89817      24   89823   89820      25
   89829   89826      24   89832   89826      24   89832   89829      25   89838
   89835      24   89841   89835      24   89841   89838      25   89847   89844
      24   89850   89844      24   89850   89847      25   89856   89853      24
   89859   89853      24   89859   89856      25   89865   89862      24   89868
   89862      24   89868   89865      25   89874   89871      24   89877   89871
      24   89877   89874      25   89883   89880      24   89886   89880      24
   89886   89883      25   89892   89889      24   89895   89889      24   89895
   89892      25   89901   89898      24   89904   89898      24   89904   89901
      25   89910   89907      24   89913   89907      24   89913   89910      25
   89919   89916      24   89922   89916      24   89922   89919      25   89928
   89925      24   89931   89925      24   89931   89928      25   89937   89934
      24   89940   89934      24   89940   89937      25   89946   89943      24
   89949   89943      24   89949   89946      25   89955   89952      24   89958
   89952      24   89958   89955      25   89964   89961      24   89967   89961
      24   89967   89964      25   89973   89970      24   89976   89970      24
   89976   89973      25   89982   89979      24   89985   89979      24   89985
   89982      25   89991   89988      24   89994   89988      24   89994   89991
      25   90000   89997      24   90003   89997      24   90003   90000      25
   90009   90006      24   90012   90006      24   90012   90009      25   90018
   90015      24   90021   90015      24   90021   90018      25   90027   90024
      24   90030   90024      24   90030   90027      25   90036   90033      24
   90039   90033      24   90039   90036      25   90045   90042      24   90048
   90042      24   90048   90045      25   90054   90051      24   90057   90051
      24   90057   90054      25   90063   90060      24   90066   90060      24
   90066   90063      25   90072   90069      24   90075   90069      24   90075
   90072      25   90081   90078      24   90084   90078      24   90084   90081
      25   90090   90087      24   90093   90087      24   90093   90090      25
   90099   90096      24   90102   90096      24   90102   90099      25   90108
   90105      24   90111   90105      24   90111   90108      25   90117   90114
      24   90120   90114      24   90120   90117      25   90126   90123      24
   90129   90123      24   90129   90126      25   90135   90132      24   90138
   90132      24   90138   90135      25   90144   90141      24   90147   90141
      24   90147   90144      25   90153   90150      24   90156   90150      24
   90156   90153      25   90162   90159      24   90165   90159      24   90165
   90162      25   90171   90168      24   90174   90168      24   90174   90171
      25   90180   90177      24   90183   90177      24   90183   90180      25
   90189   90186      24   90192   90186      24   90192   90189      25   90198
   90195      24   90201   90195      24   90201   90198      25   90207   90204
      24   90210   90204      24   90210   90207      25   90216   90213      24
   90219   90213      24   90219   90216      25   90225   90222      24   90228
   90222      24   90228   90225      25   90234   90231      24   90237   90231
      24   90237   90234      25   90243   90240      24   90246   90240      24
   90246   90243      25   90252   90249      24   90255   90249      24   90255
   90252      25   90261   90258      24   90264   90258      24   90264   90261
      25   90270   90267      24   90273   90267      24   90273   90270      25
   90279   90276      24   90282   90276      24   90282   90279      25   90288
   90285      24   90291   90285      24   90291   90288      25   90297   90294
      24   90300   90294      24   90300   90297      25   90306   90303      24
   90309   90303      24   90309   90306      25   90315   90312      24   90318
   90312      24   90318   90315      25   90324   90321      24   90327   90321
      24   90327   90324      25   90333   90330      24   90336   90330      24
   90336   90333      25   90342   90339      24   90345   90339      24   90345
   90342      25   90351   90348      24   90354   90348      24   90354   90351
      25   90360   90357      24   90363   90357      24   90363   90360      25
   90369   90366      24   90372   90366      24   90372   90369      25   90378
   90375      24   90381   90375      24   90381   90378      25   90387   90384
      24   90390   90384      24   90390   90387      25   90396   90393      24
   90399   90393      24   90399   90396      25   90405   90402      24   90408
   90402      24   90408   90405      25   90414   90411      24   90417   90411
      24   90417   90414      25   90423   90420      24   90426   90420      24
   90426   90423      25   90432   90429      24   90435   90429      24   90435
   90432      25   90441   90438      24   90444   90438      24   90444   90441
      25   90450   90447      24   90453   90447      24   90453   90450      25
   90459   90456      24   90462   90456      24   90462   90459      25   90468
   90465      24   90471   90465      24   90471   90468      25   90477   90474
      24   90480   90474      24   90480   90477      25   90486   90483      24
   90489   90483      24   90489   90486      25   90495   90492      24   90498
   90492      24   90498   90495      25   90504   90501      24   90507   90501
      24   90507   90504      25   90513   90510      24   90516   90510      24
   90516   90513      25   90522   90519      24   90525   90519      24   90525
   90522      25   90531   90528      24   90534   90528      24   90534   90531
      25   90540   90537      24   90543   90537      24   90543   90540      25
   90549   90546      24   90552   90546      24   90552   90549      25   90558
   90555      24   90561   90555      24   90561   90558      25   90567   90564
      24   90570   90564      24   90570   90567      25   90576   90573      24
   90579   90573      24   90579   90576      25   90585   90582      24   90588
   90582      24   90588   90585      25   90594   90591      24   90597   90591
      24   90597   90594      25   90603   90600      24   90606   90600      24
   90606   90603      25   90612   90609      24   90615   90609      24   90615
   90612      25   90621   90618      24   90624   90618      24   90624   90621
      25   90630   90627      24   90633   90627      24   90633   90630      25
   90639   90636      24   90642   90636      24   90642   90639      25   90648
   90645      24   90651   90645      24   90651   90648      25   90657   90654
      24   90660   90654      24   90660   90657      25   90666   90663      24
   90669   90663      24   90669   90666      25   90675   90672      24   90678
   90672      24   90678   90675      25   90684   90681      24   90687   90681
      24   90687   90684      25   90693   90690      24   90696   90690      24
   90696   90693      25   90702   90699      24   90705   90699      24   90705
   90702      25   90711   90708      24   90714   90708      24   90714   90711
      25   90720   90717      24   90723   90717      24   90723   90720      25
   90729   90726      24   90732   90726      24   90732   90729      25   90738
   90735      24   90741   90735      24   90741   90738      25   90747   90744
      24   90750   90744      24   90750   90747      25   90756   90753      24
   90759   90753      24   90759   90756      25   90765   90762      24   90768
   90762      24   90768   90765      25   90774   90771      24   90777   90771
      24   90777   90774      25   90783   90780      24   90786   90780      24
   90786   90783      25   90792   90789      24   90795   90789      24   90795
   90792      25   90801   90798      24   90804   90798      24   90804   90801
      25   90810   90807      24   90813   90807      24   90813   90810      25
   90819   90816      24   90822   90816      24   90822   90819      25   90828
   90825      24   90831   90825      24   90831   90828      25   90837   90834
      24   90840   90834      24   90840   90837      25   90846   90843      24
   90849   90843      24   90849   90846      25   90855   90852      24   90858
   90852      24   90858   90855      25   90864   90861      24   90867   90861
      24   90867   90864      25   90873   90870      24   90876   90870      24
   90876   90873      25   90882   90879      24   90885   90879      24   90885
   90882      25   90891   90888      24   90894   90888      24   90894   90891
      25   90900   90897      24   90903   90897      24   90903   90900      25
   90909   90906      24   90912   90906      24   90912   90909      25   90918
   90915      24   90921   90915      24   90921   90918      25   90927   90924
      24   90930   90924      24   90930   90927      25   90936   90933      24
   90939   90933      24   90939   90936      25   90945   90942      24   90948
   90942      24   90948   90945      25   90954   90951      24   90957   90951
      24   90957   90954      25   90963   90960      24   90966   90960      24
   90966   90963      25   90972   90969      24   90975   90969      24   90975
   90972      25   90981   90978      24   90984   90978      24   90984   90981
      25   90990   90987      24   90993   90987      24   90993   90990      25
   90999   90996      24   91002   90996      24   91002   90999      25   91008
   91005      24   91011   91005      24   91011   91008      25   91017   91014
      24   91020   91014      24   91020   91017      25   91026   91023      24
   91029   91023      24   91029   91026      25   91035   91032      24   91038
   91032      24   91038   91035      25   91044   91041      24   91047   91041
      24   91047   91044      25   91053   91050      24   91056   91050      24
   91056   91053      25   91062   91059      24   91065   91059      24   91065
   91062      25   91071   91068      24   91074   91068      24   91074   91071
      25   91080   91077      24   91083   91077      24   91083   91080      25
   91089   91086      24   91092   91086      24   91092   91089      25   91098
   91095      24   91101   91095      24   91101   91098      25   91107   91104
      24   91110   91104      24   91110   91107      25   91116   91113      24
   91119   91113      24   91119   91116      25   91125   91122      24   91128
   91122      24   91128   91125      25   91134   91131      24   91137   91131
      24   91137   91134      25   91143   91140      24   91146   91140      24
   91146   91143      25   91152   91149      24   91155   91149      24   91155
   91152      25   91161   91158      24   91164   91158      24   91164   91161
      25   91170   91167      24   91173   91167      24   91173   91170      25
   91179   91176      24   91182   91176      24   91182   91179      25   91188
   91185      24   91191   91185      24   91191   91188      25   91197   91194
      24   91200   91194      24   91200   91197      25   91206   91203      24
   91209   91203      24   91209   91206      25   91215   91212      24   91218
   91212      24   91218   91215      25   91224   91221      24   91227   91221
      24   91227   91224      25   91233   91230      24   91236   91230      24
   91236   91233      25   91242   91239      24   91245   91239      24   91245
   91242      25   91251   91248      24   91254   91248      24   91254   91251
      25   91260   91257      24   91263   91257      24   91263   91260      25
   91269   91266      24   91272   91266      24   91272   91269      25   91278
   91275      24   91281   91275      24   91281   91278      25   91287   91284
      24   91290   91284      24   91290   91287      25   91296   91293      24
   91299   91293      24   91299   91296      25   91305   91302      24   91308
   91302      24   91308   91305      25   91314   91311      24   91317   91311
      24   91317   91314      25   91323   91320      24   91326   91320      24
   91326   91323      25   91332   91329      24   91335   91329      24   91335
   91332      25   91341   91338      24   91344   91338      24   91344   91341
      25   91350   91347      24   91353   91347      24   91353   91350      25
   91359   91356      24   91362   91356      24   91362   91359      25   91368
   91365      24   91371   91365      24   91371   91368      25   91377   91374
      24   91380   91374      24   91380   91377      25   91386   91383      24
   91389   91383      24   91389   91386      25   91395   91392      24   91398
   91392      24   91398   91395      25   91404   91401      24   91407   91401
      24   91407   91404      25   91413   91410      24   91416   91410      24
   91416   91413      25   91422   91419      24   91425   91419      24   91425
   91422      25   91431   91428      24   91434   91428      24   91434   91431
      25   91440   91437      24   91443   91437      24   91443   91440      25
   91449   91446      24   91452   91446      24   91452   91449      25   91458
   91455      24   91461   91455      24   91461   91458      25   91467   91464
      24   91470   91464      24   91470   91467      25   91476   91473      24
   91479   91473      24   91479   91476      25   91485   91482      24   91488
   91482      24   91488   91485      25   91494   91491      24   91497   91491
      24   91497   91494      25   91503   91500      24   91506   91500      24
   91506   91503      25   91512   91509      24   91515   91509      24   91515
   91512      25   91521   91518      24   91524   91518      24   91524   91521
      25   91530   91527      24   91533   91527      24   91533   91530      25
   91539   91536      24   91542   91536      24   91542   91539      25   91548
   91545      24   91551   91545      24   91551   91548      25   91557   91554
      24   91560   91554      24   91560   91557      25   91566   91563      24
   91569   91563      24   91569   91566      25   91575   91572      24   91578
   91572      24   91578   91575      25   91584   91581      24   91587   91581
      24   91587   91584      25   91593   91590      24   91596   91590      24
   91596   91593      25   91602   91599      24   91605   91599      24   91605
   91602      25   91611   91608      24   91614   91608      24   91614   91611
      25   91620   91617      24   91623   91617      24   91623   91620      25
   91629   91626      24   91632   91626      24   91632   91629      25   91638
   91635      24   91641   91635      24   91641   91638      25   91647   91644
      24   91650   91644      24   91650   91647      25   91656   91653      24
   91659   91653      24   91659   91656      25   91665   91662      24   91668
   91662      24   91668   91665      25   91674   91671      24   91677   91671
      24   91677   91674      25   91683   91680      24   91686   91680      24
   91686   91683      25   91692   91689      24   91695   91689      24   91695
   91692      25   91701   91698      24   91704   91698      24   91704   91701
      25   91710   91707      24   91713   91707      24   91713   91710      25
   91719   91716      24   91722   91716      24   91722   91719      25   91728
   91725      24   91731   91725      24   91731   91728      25   91737   91734
      24   91740   91734      24   91740   91737      25   91746   91743      24
   91749   91743      24   91749   91746      25   91755   91752      24   91758
   91752      24   91758   91755      25   91764   91761      24   91767   91761
      24   91767   91764      25   91773   91770      24   91776   91770      24
   91776   91773      25   91782   91779      24   91785   91779      24   91785
   91782      25   91791   91788      24   91794   91788      24   91794   91791
      25   91800   91797      24   91803   91797      24   91803   91800      25
   91809   91806      24   91812   91806      24   91812   91809      25   91818
   91815      24   91821   91815      24   91821   91818      25   91827   91824
      24   91830   91824      24   91830   91827      25   91836   91833      24
   91839   91833      24   91839   91836      25   91845   91842      24   91848
   91842      24   91848   91845      25   91854   91851      24   91857   91851
      24   91857   91854      25   91863   91860      24   91866   91860      24
   91866   91863      25   91872   91869      24   91875   91869      24   91875
   91872      25   91881   91878      24   91884   91878      24   91884   91881
      25   91890   91887      24   91893   91887      24   91893   91890      25
   91899   91896      24   91902   91896      24   91902   91899      25   91908
   91905      24   91911   91905      24   91911   91908      25   91917   91914
      24   91920   91914      24   91920   91917      25   91926   91923      24
   91929   91923      24   91929   91926      25   91935   91932      24   91938
   91932      24   91938   91935      25   91944   91941      24   91947   91941
      24   91947   91944      25   91953   91950      24   91956   91950      24
   91956   91953      25   91962   91959      24   91965   91959      24   91965
   91962      25   91971   91968      24   91974   91968      24   91974   91971
      25   91980   91977      24   91983   91977      24   91983   91980      25
   91989   91986      24   91992   91986      24   91992   91989      25   91998
   91995      24   92001   91995      24   92001   91998      25   92007   92004
      24   92010   92004      24   92010   92007      25   92016   92013      24
   92019   92013      24   92019   92016      25   92025   92022      24   92028
   92022      24   92028   92025      25   92034   92031      24   92037   92031
      24   92037   92034      25   92043   92040      24   92046   92040      24
   92046   92043      25   92052   92049      24   92055   92049      24   92055
   92052      25   92061   92058      24   92064   92058      24   92064   92061
      25   92070   92067      24   92073   92067      24   92073   92070      25
   92079   92076      24   92082   92076      24   92082   92079      25   92088
   92085      24   92091   92085      24   92091   92088      25   92097   92094
      24   92100   92094      24   92100   92097      25   92106   92103      24
   92109   92103      24   92109   92106      25   92115   92112      24   92118
   92112      24   92118   92115      25   92124   92121      24   92127   92121
      24   92127   92124      25   92133   92130      24   92136   92130      24
   92136   92133      25   92142   92139      24   92145   92139      24   92145
   92142      25   92151   92148      24   92154   92148      24   92154   92151
      25   92160   92157      24   92163   92157      24   92163   92160      25
   92169   92166      24   92172   92166      24   92172   92169      25   92178
   92175      24   92181   92175      24   92181   92178      25   92187   92184
      24   92190   92184      24   92190   92187      25   92196   92193      24
   92199   92193      24   92199   92196      25   92205   92202      24   92208
   92202      24   92208   92205      25   92214   92211      24   92217   92211
      24   92217   92214      25   92223   92220      24   92226   92220      24
   92226   92223      25   92232   92229      24   92235   92229      24   92235
   92232      25   92241   92238      24   92244   92238      24   92244   92241
      25   92250   92247      24   92253   92247      24   92253   92250      25
   92259   92256      24   92262   92256      24   92262   92259      25   92268
   92265      24   92271   92265      24   92271   92268      25   92277   92274
      24   92280   92274      24   92280   92277      25   92286   92283      24
   92289   92283      24   92289   92286      25   92295   92292      24   92298
   92292      24   92298   92295      25   92304   92301      24   92307   92301
      24   92307   92304      25   92313   92310      24   92316   92310      24
   92316   92313      25   92322   92319      24   92325   92319      24   92325
   92322      25   92331   92328      24   92334   92328      24   92334   92331
      25   92340   92337      24   92343   92337      24   92343   92340      25
   92349   92346      24   92352   92346      24   92352   92349      25   92358
   92355      24   92361   92355      24   92361   92358      25   92367   92364
      24   92370   92364      24   92370   92367      25   92376   92373      24
   92379   92373      24   92379   92376      25   92385   92382      24   92388
   92382      24   92388   92385      25   92394   92391      24   92397   92391
      24   92397   92394      25   92403   92400      24   92406   92400      24
   92406   92403      25   92412   92409      24   92415   92409      24   92415
   92412      25   92421   92418      24   92424   92418      24   92424   92421
      25   92430   92427      24   92433   92427      24   92433   92430      25
   92439   92436      24   92442   92436      24   92442   92439      25   92448
   92445      24   92451   92445      24   92451   92448      25   92457   92454
      24   92460   92454      24   92460   92457      25   92466   92463      24
   92469   92463      24   92469   92466      25   92475   92472      24   92478
   92472      24   92478   92475      25   92484   92481      24   92487   92481
      24   92487   92484      25   92493   92490      24   92496   92490      24
   92496   92493      25   92502   92499      24   92505   92499      24   92505
   92502      25   92511   92508      24   92514   92508      24   92514   92511
      25   92520   92517      24   92523   92517      24   92523   92520      25
   92529   92526      24   92532   92526      24   92532   92529      25   92538
   92535      24   92541   92535      24   92541   92538      25   92547   92544
      24   92550   92544      24   92550   92547      25   92556   92553      24
   92559   92553      24   92559   92556      25   92565   92562      24   92568
   92562      24   92568   92565      25   92574   92571      24   92577   92571
      24   92577   92574      25   92583   92580      24   92586   92580      24
   92586   92583      25   92592   92589      24   92595   92589      24   92595
   92592      25   92601   92598      24   92604   92598      24   92604   92601
      25   92610   92607      24   92613   92607      24   92613   92610      25
   92619   92616      24   92622   92616      24   92622   92619      25   92628
   92625      24   92631   92625      24   92631   92628      25   92637   92634
      24   92640   92634      24   92640   92637      25   92646   92643      24
   92649   92643      24   92649   92646      25   92655   92652      24   92658
   92652      24   92658   92655      25   92664   92661      24   92667   92661
      24   92667   92664      25   92673   92670      24   92676   92670      24
   92676   92673      25   92682   92679      24   92685   92679      24   92685
   92682      25   92691   92688      24   92694   92688      24   92694   92691
      25   92700   92697      24   92703   92697      24   92703   92700      25
   92709   92706      24   92712   92706      24   92712   92709      25   92718
   92715      24   92721   92715      24   92721   92718      25   92727   92724
      24   92730   92724      24   92730   92727      25   92736   92733      24
   92739   92733      24   92739   92736      25   92745   92742      24   92748
   92742      24   92748   92745      25   92754   92751      24   92757   92751
      24   92757   92754      25   92763   92760      24   92766   92760      24
   92766   92763      25   92772   92769      24   92775   92769      24   92775
   92772      25   92781   92778      24   92784   92778      24   92784   92781
      25   92790   92787      24   92793   92787      24   92793   92790      25
   92799   92796      24   92802   92796      24   92802   92799      25   92808
   92805      24   92811   92805      24   92811   92808      25   92817   92814
      24   92820   92814      24   92820   92817      25   92826   92823      24
   92829   92823      24   92829   92826      25   92835   92832      24   92838
   92832      24   92838   92835      25   92844   92841      24   92847   92841
      24   92847   92844      25   92853   92850      24   92856   92850      24
   92856   92853      25   92862   92859      24   92865   92859      24   92865
   92862      25   92871   92868      24   92874   92868      24   92874   92871
      25   92880   92877      24   92883   92877      24   92883   92880      25
   92889   92886      24   92892   92886      24   92892   92889      25   92898
   92895      24   92901   92895      24   92901   92898      25   92907   92904
      24   92910   92904      24   92910   92907      25   92916   92913      24
   92919   92913      24   92919   92916      25   92925   92922      24   92928
   92922      24   92928   92925      25   92934   92931      24   92937   92931
      24   92937   92934      25   92943   92940      24   92946   92940      24
   92946   92943      25   92952   92949      24   92955   92949      24   92955
   92952      25   92961   92958      24   92964   92958      24   92964   92961
      25   92970   92967      24   92973   92967      24   92973   92970      25
   92979   92976      24   92982   92976      24   92982   92979      25   92988
   92985      24   92991   92985      24   92991   92988      25   92997   92994
      24   93000   92994      24   93000   92997      25   93006   93003      24
   93009   93003      24   93009   93006      25   93015   93012      24   93018
   93012      24   93018   93015      25   93024   93021      24   93027   93021
      24   93027   93024      25   93033   93030      24   93036   93030      24
   93036   93033      25   93042   93039      24   93045   93039      24   93045
   93042      25   93051   93048      24   93054   93048      24   93054   93051
      25   93060   93057      24   93063   93057      24   93063   93060      25
   93069   93066      24   93072   93066      24   93072   93069      25   93078
   93075      24   93081   93075      24   93081   93078      25   93087   93084
      24   93090   93084      24   93090   93087      25   93096   93093      24
   93099   93093      24   93099   93096      25   93105   93102      24   93108
   93102      24   93108   93105      25   93114   93111      24   93117   93111
      24   93117   93114      25   93123   93120      24   93126   93120      24
   93126   93123      25   93132   93129      24   93135   93129      24   93135
   93132      25   93141   93138      24   93144   93138      24   93144   93141
      25   93150   93147      24   93153   93147      24   93153   93150      25
   93159   93156      24   93162   93156      24   93162   93159      25   93168
   93165      24   93171   93165      24   93171   93168      25   93177   93174
      24   93180   93174      24   93180   93177      25   93186   93183      24
   93189   93183      24   93189   93186      25   93195   93192      24   93198
   93192      24   93198   93195      25   93204   93201      24   93207   93201
      24   93207   93204      25   93213   93210      24   93216   93210      24
   93216   93213      25   93222   93219      24   93225   93219      24   93225
   93222      25   93231   93228      24   93234   93228      24   93234   93231
      25   93240   93237      24   93243   93237      24   93243   93240      25
   93249   93246      24   93252   93246      24   93252   93249      25   93258
   93255      24   93261   93255      24   93261   93258      25   93267   93264
      24   93270   93264      24   93270   93267      25   93276   93273      24
   93279   93273      24   93279   93276      25   93285   93282      24   93288
   93282      24   93288   93285      25   93294   93291      24   93297   93291
      24   93297   93294      25   93303   93300      24   93306   93300      24
   93306   93303      25   93312   93309      24   93315   93309      24   93315
   93312      25   93321   93318      24   93324   93318      24   93324   93321
      25   93330   93327      24   93333   93327      24   93333   93330      25
   93339   93336      24   93342   93336      24   93342   93339      25   93348
   93345      24   93351   93345      24   93351   93348      25   93357   93354
      24   93360   93354      24   93360   93357      25   93366   93363      24
   93369   93363      24   93369   93366      25   93375   93372      24   93378
   93372      24   93378   93375      25   93384   93381      24   93387   93381
      24   93387   93384      25   93393   93390      24   93396   93390      24
   93396   93393      25   93402   93399      24   93405   93399      24   93405
   93402      25   93411   93408      24   93414   93408      24   93414   93411
      25   93420   93417      24   93423   93417      24   93423   93420      25
   93429   93426      24   93432   93426      24   93432   93429      25   93438
   93435      24   93441   93435      24   93441   93438      25   93447   93444
      24   93450   93444      24   93450   93447      25   93456   93453      24
   93459   93453      24   93459   93456      25   93465   93462      24   93468
   93462      24   93468   93465      25   93474   93471      24   93477   93471
      24   93477   93474      25   93483   93480      24   93486   93480      24
   93486   93483      25   93492   93489      24   93495   93489      24   93495
   93492      25   93501   93498      24   93504   93498      24   93504   93501
      25   93510   93507      24   93513   93507      24   93513   93510      25
   93519   93516      24   93522   93516      24   93522   93519      25   93528
   93525      24   93531   93525      24   93531   93528      25   93537   93534
      24   93540   93534      24   93540   93537      25   93546   93543      24
   93549   93543      24   93549   93546      25   93555   93552      24   93558
   93552      24   93558   93555      25   93564   93561      24   93567   93561
      24   93567   93564      25   93573   93570      24   93576   93570      24
   93576   93573      25   93582   93579      24   93585   93579      24   93585
   93582      25   93591   93588      24   93594   93588      24   93594   93591
      25   93600   93597      24   93603   93597      24   93603   93600      25
   93609   93606      24   93612   93606      24   93612   93609      25   93618
   93615      24   93621   93615      24   93621   93618      25   93627   93624
      24   93630   93624      24   93630   93627      25   93636   93633      24
   93639   93633      24   93639   93636      25   93645   93642      24   93648
   93642      24   93648   93645      25   93654   93651      24   93657   93651
      24   93657   93654      25   93663   93660      24   93666   93660      24
   93666   93663      25   93672   93669      24   93675   93669      24   93675
   93672      25   93681   93678      24   93684   93678      24   93684   93681
      25   93690   93687      24   93693   93687      24   93693   93690      25
   93699   93696      24   93702   93696      24   93702   93699      25   93708
   93705      24   93711   93705      24   93711   93708      25   93717   93714
      24   93720   93714      24   93720   93717      25   93726   93723      24
   93729   93723      24   93729   93726      25   93735   93732      24   93738
   93732      24   93738   93735      25   93744   93741      24   93747   93741
      24   93747   93744      25   93753   93750      24   93756   93750      24
   93756   93753      25   93762   93759      24   93765   93759      24   93765
   93762      25   93771   93768      24   93774   93768      24   93774   93771
      25   93780   93777      24   93783   93777      24   93783   93780      25
   93789   93786      24   93792   93786      24   93792   93789      25   93798
   93795      24   93801   93795      24   93801   93798      25   93807   93804
      24   93810   93804      24   93810   93807      25   93816   93813      24
   93819   93813      24   93819   93816      25   93825   93822      24   93828
   93822      24   93828   93825      25   93834   93831      24   93837   93831
      24   93837   93834      25   93843   93840      24   93846   93840      24
   93846   93843      25   93852   93849      24   93855   93849      24   93855
   93852      25   93861   93858      24   93864   93858      24   93864   93861
      25   93870   93867      24   93873   93867      24   93873   93870      25
   93879   93876      24   93882   93876      24   93882   93879      25   93888
   93885      24   93891   93885      24   93891   93888      25   93897   93894
      24   93900   93894      24   93900   93897      25   93906   93903      24
   93909   93903      24   93909   93906      25   93915   93912      24   93918
   93912      24   93918   93915      25   93924   93921      24   93927   93921
      24   93927   93924      25   93933   93930      24   93936   93930      24
   93936   93933      25   93942   93939      24   93945   93939      24   93945
   93942      25   93951   93948      24   93954   93948      24   93954   93951
      25   93960   93957      24   93963   93957      24   93963   93960      25
   93969   93966      24   93972   93966      24   93972   93969      25   93978
   93975      24   93981   93975      24   93981   93978      25   93987   93984
      24   93990   93984      24   93990   93987      25   93996   93993      24
   93999   93993      24   93999   93996      25   94005   94002      24   94008
   94002      24   94008   94005      25   94014   94011      24   94017   94011
      24   94017   94014      25   94023   94020      24   94026   94020      24
   94026   94023      25   94032   94029      24   94035   94029      24   94035
   94032      25   94041   94038      24   94044   94038      24   94044   94041
      25   94050   94047      24   94053   94047      24   94053   94050      25
   94059   94056      24   94062   94056      24   94062   94059      25   94068
   94065      24   94071   94065      24   94071   94068      25   94077   94074
      24   94080   94074      24   94080   94077      25   94086   94083      24
   94089   94083      24   94089   94086      25   94095   94092      24   94098
   94092      24   94098   94095      25   94104   94101      24   94107   94101
      24   94107   94104      25   94113   94110      24   94116   94110      24
   94116   94113      25   94122   94119      24   94125   94119      24   94125
   94122      25   94131   94128      24   94134   94128      24   94134   94131
      25   94140   94137      24   94143   94137      24   94143   94140      25
   94149   94146      24   94152   94146      24   94152   94149      25   94158
   94155      24   94161   94155      24   94161   94158      25   94167   94164
      24   94170   94164      24   94170   94167      25   94176   94173      24
   94179   94173      24   94179   94176      25   94185   94182      24   94188
   94182      24   94188   94185      25   94194   94191      24   94197   94191
      24   94197   94194      25   94203   94200      24   94206   94200      24
   94206   94203      25   94212   94209      24   94215   94209      24   94215
   94212      25   94221   94218      24   94224   94218      24   94224   94221
      25   94230   94227      24   94233   94227      24   94233   94230      25
   94239   94236      24   94242   94236      24   94242   94239      25   94248
   94245      24   94251   94245      24   94251   94248      25   94257   94254
      24   94260   94254      24   94260   94257      25   94266   94263      24
   94269   94263      24   94269   94266      25   94275   94272      24   94278
   94272      24   94278   94275      25   94284   94281      24   94287   94281
      24   94287   94284      25   94293   94290      24   94296   94290      24
   94296   94293      25   94302   94299      24   94305   94299      24   94305
   94302      25   94311   94308      24   94314   94308      24   94314   94311
      25   94320   94317      24   94323   94317      24   94323   94320      25
   94329   94326      24   94332   94326      24   94332   94329      25   94338
   94335      24   94341   94335      24   94341   94338      25   94347   94344
      24   94350   94344      24   94350   94347      25   94356   94353      24
   94359   94353      24   94359   94356      25   94365   94362      24   94368
   94362      24   94368   94365      25   94374   94371      24   94377   94371
      24   94377   94374      25   94383   94380      24   94386   94380      24
   94386   94383      25   94392   94389      24   94395   94389      24   94395
   94392      25   94401   94398      24   94404   94398      24   94404   94401
      25   94410   94407      24   94413   94407      24   94413   94410      25
   94419   94416      24   94422   94416      24   94422   94419      25   94428
   94425      24   94431   94425      24   94431   94428      25   94437   94434
      24   94440   94434      24   94440   94437      25   94446   94443      24
   94449   94443      24   94449   94446      25   94455   94452      24   94458
   94452      24   94458   94455      25   94464   94461      24   94467   94461
      24   94467   94464      25   94473   94470      24   94476   94470      24
   94476   94473      25   94482   94479      24   94485   94479      24   94485
   94482      25   94491   94488      24   94494   94488      24   94494   94491
      25   94500   94497      24   94503   94497      24   94503   94500      25
   94509   94506      24   94512   94506      24   94512   94509      25   94518
   94515      24   94521   94515      24   94521   94518      25   94527   94524
      24   94530   94524      24   94530   94527      25   94536   94533      24
   94539   94533      24   94539   94536      25   94545   94542      24   94548
   94542      24   94548   94545      25   94554   94551      24   94557   94551
      24   94557   94554      25   94563   94560      24   94566   94560      24
   94566   94563      25   94572   94569      24   94575   94569      24   94575
   94572      25   94581   94578      24   94584   94578      24   94584   94581
      25   94590   94587      24   94593   94587      24   94593   94590      25
   94599   94596      24   94602   94596      24   94602   94599      25   94608
   94605      24   94611   94605      24   94611   94608      25   94617   94614
      24   94620   94614      24   94620   94617      25   94626   94623      24
   94629   94623      24   94629   94626      25   94635   94632      24   94638
   94632      24   94638   94635      25   94644   94641      24   94647   94641
      24   94647   94644      25   94653   94650      24   94656   94650      24
   94656   94653      25   94662   94659      24   94665   94659      24   94665
   94662      25   94671   94668      24   94674   94668      24   94674   94671
      25   94680   94677      24   94683   94677      24   94683   94680      25
   94689   94686      24   94692   94686      24   94692   94689      25   94698
   94695      24   94701   94695      24   94701   94698      25   94707   94704
      24   94710   94704      24   94710   94707      25   94716   94713      24
   94719   94713      24   94719   94716      25   94725   94722      24   94728
   94722      24   94728   94725      25   94734   94731      24   94737   94731
      24   94737   94734      25   94743   94740      24   94746   94740      24
   94746   94743      25   94752   94749      24   94755   94749      24   94755
   94752      25   94761   94758      24   94764   94758      24   94764   94761
      25   94770   94767      24   94773   94767      24   94773   94770      25
   94779   94776      24   94782   94776      24   94782   94779      25   94788
   94785      24   94791   94785      24   94791   94788      25   94797   94794
      24   94800   94794      24   94800   94797      25   94806   94803      24
   94809   94803      24   94809   94806      25   94815   94812      24   94818
   94812      24   94818   94815      25   94824   94821      24   94827   94821
      24   94827   94824      25   94833   94830      24   94836   94830      24
   94836   94833      25   94842   94839      24   94845   94839      24   94845
   94842      25   94851   94848      24   94854   94848      24   94854   94851
      25   94860   94857      24   94863   94857      24   94863   94860      25
   94869   94866      24   94872   94866      24   94872   94869      25   94878
   94875      24   94881   94875      24   94881   94878      25   94887   94884
      24   94890   94884      24   94890   94887      25   94896   94893      24
   94899   94893      24   94899   94896      25   94905   94902      24   94908
   94902      24   94908   94905      25   94914   94911      24   94917   94911
      24   94917   94914      25   94923   94920      24   94926   94920      24
   94926   94923      25   94932   94929      24   94935   94929      24   94935
   94932      25   94941   94938      24   94944   94938      24   94944   94941
      25   94950   94947      24   94953   94947      24   94953   94950      25
   94959   94956      24   94962   94956      24   94962   94959      25   94968
   94965      24   94971   94965      24   94971   94968      25   94977   94974
      24   94980   94974      24   94980   94977      25   94986   94983      24
   94989   94983      24   94989   94986      25   94995   94992      24   94998
   94992      24   94998   94995      25   95004   95001      24   95007   95001
      24   95007   95004      25   95013   95010      24   95016   95010      24
   95016   95013      25   95022   95019      24   95025   95019      24   95025
   95022      25   95031   95028      24   95034   95028      24   95034   95031
      25   95040   95037      24   95043   95037      24   95043   95040      25
   95049   95046      24   95052   95046      24   95052   95049      25   95058
   95055      24   95061   95055      24   95061   95058      25   95067   95064
      24   95070   95064      24   95070   95067      25   95076   95073      24
   95079   95073      24   95079   95076      25   95085   95082      24   95088
   95082      24   95088   95085      25   95094   95091      24   95097   95091
      24   95097   95094      25   95103   95100      24   95106   95100      24
   95106   95103      25   95112   95109      24   95115   95109      24   95115
   95112      25   95121   95118      24   95124   95118      24   95124   95121
      25   95130   95127      24   95133   95127      24   95133   95130      25
   95139   95136      24   95142   95136      24   95142   95139      25   95148
   95145      24   95151   95145      24   95151   95148      25   95157   95154
      24   95160   95154      24   95160   95157      25   95166   95163      24
   95169   95163      24   95169   95166      25   95175   95172      24   95178
   95172      24   95178   95175      25   95184   95181      24   95187   95181
      24   95187   95184      25   95193   95190      24   95196   95190      24
   95196   95193      25   95202   95199      24   95205   95199      24   95205
   95202      25   95211   95208      24   95214   95208      24   95214   95211
      25   95220   95217      24   95223   95217      24   95223   95220      25
   95229   95226      24   95232   95226      24   95232   95229      25   95238
   95235      24   95241   95235      24   95241   95238      25   95247   95244
      24   95250   95244      24   95250   95247      25   95256   95253      24
   95259   95253      24   95259   95256      25   95265   95262      24   95268
   95262      24   95268   95265      25   95274   95271      24   95277   95271
      24   95277   95274      25   95283   95280      24   95286   95280      24
   95286   95283      25   95292   95289      24   95295   95289      24   95295
   95292      25   95301   95298      24   95304   95298      24   95304   95301
      25   95310   95307      24   95313   95307      24   95313   95310      25
   95319   95316      24   95322   95316      24   95322   95319      25   95328
   95325      24   95331   95325      24   95331   95328      25   95337   95334
      24   95340   95334      24   95340   95337      25   95346   95343      24
   95349   95343      24   95349   95346      25   95355   95352      24   95358
   95352      24   95358   95355      25   95364   95361      24   95367   95361
      24   95367   95364      25   95373   95370      24   95376   95370      24
   95376   95373      25   95382   95379      24   95385   95379      24   95385
   95382      25   95391   95388      24   95394   95388      24   95394   95391
      25   95400   95397      24   95403   95397      24   95403   95400      25
   95409   95406      24   95412   95406      24   95412   95409      25   95418
   95415      24   95421   95415      24   95421   95418      25   95427   95424
      24   95430   95424      24   95430   95427      25   95436   95433      24
   95439   95433      24   95439   95436      25   95445   95442      24   95448
   95442      24   95448   95445      25   95454   95451      24   95457   95451
      24   95457   95454      25   95463   95460      24   95466   95460      24
   95466   95463      25   95472   95469      24   95475   95469      24   95475
   95472      25   95481   95478      24   95484   95478      24   95484   95481
      25   95490   95487      24   95493   95487      24   95493   95490      25
   95499   95496      24   95502   95496      24   95502   95499      25   95508
   95505      24   95511   95505      24   95511   95508      25   95517   95514
      24   95520   95514      24   95520   95517      25   95526   95523      24
   95529   95523      24   95529   95526      25   95535   95532      24   95538
   95532      24   95538   95535      25   95544   95541      24   95547   95541
      24   95547   95544      25   95553   95550      24   95556   95550      24
   95556   95553      25   95562   95559      24   95565   95559      24   95565
   95562      25   95571   95568      24   95574   95568      24   95574   95571
      25   95580   95577      24   95583   95577      24   95583   95580      25
   95589   95586      24   95592   95586      24   95592   95589      25   95598
   95595      24   95601   95595      24   95601   95598      25   95607   95604
      24   95610   95604      24   95610   95607      25   95616   95613      24
   95619   95613      24   95619   95616      25   95625   95622      24   95628
   95622      24   95628   95625      25   95634   95631      24   95637   95631
      24   95637   95634      25   95643   95640      24   95646   95640      24
   95646   95643      25   95652   95649      24   95655   95649      24   95655
   95652      25   95661   95658      24   95664   95658      24   95664   95661
      25   95670   95667      24   95673   95667      24   95673   95670      25
   95679   95676      24   95682   95676      24   95682   95679      25   95688
   95685      24   95691   95685      24   95691   95688      25   95697   95694
      24   95700   95694      24   95700   95697      25   95706   95703      24
   95709   95703      24   95709   95706      25   95715   95712      24   95718
   95712      24   95718   95715      25   95724   95721      24   95727   95721
      24   95727   95724      25   95733   95730      24   95736   95730      24
   95736   95733      25   95742   95739      24   95745   95739      24   95745
   95742      25   95751   95748      24   95754   95748      24   95754   95751
      25   95760   95757      24   95763   95757      24   95763   95760      25
   95769   95766      24   95772   95766      24   95772   95769      25   95778
   95775      24   95781   95775      24   95781   95778      25   95787   95784
      24   95790   95784      24   95790   95787      25   95796   95793      24
   95799   95793      24   95799   95796      25   95805   95802      24   95808
   95802      24   95808   95805      25   95814   95811      24   95817   95811
      24   95817   95814      25   95823   95820      24   95826   95820      24
   95826   95823      25   95832   95829      24   95835   95829      24   95835
   95832      25   95841   95838      24   95844   95838      24   95844   95841
      25   95850   95847      24   95853   95847      24   95853   95850      25
   95859   95856      24   95862   95856      24   95862   95859      25   95868
   95865      24   95871   95865      24   95871   95868      25   95877   95874
      24   95880   95874      24   95880   95877      25   95886   95883      24
   95889   95883      24   95889   95886      25   95895   95892      24   95898
   95892      24   95898   95895      25   95904   95901      24   95907   95901
      24   95907   95904      25   95913   95910      24   95916   95910      24
   95916   95913      25   95922   95919      24   95925   95919      24   95925
   95922      25   95931   95928      24   95934   95928      24   95934   95931
      25   95940   95937      24   95943   95937      24   95943   95940      25
   95949   95946      24   95952   95946      24   95952   95949      25   95958
   95955      24   95961   95955      24   95961   95958      25   95967   95964
      24   95970   95964      24   95970   95967      25   95976   95973      24
   95979   95973      24   95979   95976      25   95985   95982      24   95988
   95982      24   95988   95985      25   95994   95991      24   95997   95991
      24   95997   95994      25   96003   96000      24   96006   96000      24
   96006   96003      25   96012   96009      24   96015   96009      24   96015
   96012      25   96021   96018      24   96024   96018      24   96024   96021
      25   96030   96027      24   96033   96027      24   96033   96030      25
   96039   96036      24   96042   96036      24   96042   96039      25   96048
   96045      24   96051   96045      24   96051   96048      25   96057   96054
      24   96060   96054      24   96060   96057      25   96066   96063      24
   96069   96063      24   96069   96066      25   96075   96072      24   96078
   96072      24   96078   96075      25   96084   96081      24   96087   96081
      24   96087   96084      25   96093   96090      24   96096   96090      24
   96096   96093      25   96102   96099      24   96105   96099      24   96105
   96102      25   96111   96108      24   96114   96108      24   96114   96111
      25   96120   96117      24   96123   96117      24   96123   96120      25
   96129   96126      24   96132   96126      24   96132   96129      25   96138
   96135      24   96141   96135      24   96141   96138      25   96147   96144
      24   96150   96144      24   96150   96147      25   96156   96153      24
   96159   96153      24   96159   96156      25   96165   96162      24   96168
   96162      24   96168   96165      25   96174   96171      24   96177   96171
      24   96177   96174      25   96183   96180      24   96186   96180      24
   96186   96183      25   96192   96189      24   96195   96189      24   96195
   96192      25   96201   96198      24   96204   96198      24   96204   96201
      25   96210   96207      24   96213   96207      24   96213   96210      25
   96219   96216      24   96222   96216      24   96222   96219      25   96228
   96225      24   96231   96225      24   96231   96228      25   96237   96234
      24   96240   96234      24   96240   96237      25   96246   96243      24
   96249   96243      24   96249   96246      25   96255   96252      24   96258
   96252      24   96258   96255      25   96264   96261      24   96267   96261
      24   96267   96264      25   96273   96270      24   96276   96270      24
   96276   96273      25   96282   96279      24   96285   96279      24   96285
   96282      25   96291   96288      24   96294   96288      24   96294   96291
      25   96300   96297      24   96303   96297      24   96303   96300      25
   96309   96306      24   96312   96306      24   96312   96309      25   96318
   96315      24   96321   96315      24   96321   96318      25   96327   96324
      24   96330   96324      24   96330   96327      25   96336   96333      24
   96339   96333      24   96339   96336      25   96345   96342      24   96348
   96342      24   96348   96345      25   96354   96351      24   96357   96351
      24   96357   96354      25   96363   96360      24   96366   96360      24
   96366   96363      25   96372   96369      24   96375   96369      24   96375
   96372      25   96381   96378      24   96384   96378      24   96384   96381
      25   96390   96387      24   96393   96387      24   96393   96390      25
   96399   96396      24   96402   96396      24   96402   96399      25   96408
   96405      24   96411   96405      24   96411   96408      25   96417   96414
      24   96420   96414      24   96420   96417      25   96426   96423      24
   96429   96423      24   96429   96426      25   96435   96432      24   96438
   96432      24   96438   96435      25   96444   96441      24   96447   96441
      24   96447   96444      25   96453   96450      24   96456   96450      24
   96456   96453      25   96462   96459      24   96465   96459      24   96465
   96462      25   96471   96468      24   96474   96468      24   96474   96471
      25   96480   96477      24   96483   96477      24   96483   96480      25
   96489   96486      24   96492   96486      24   96492   96489      25   96498
   96495      24   96501   96495      24   96501   96498      25   96507   96504
      24   96510   96504      24   96510   96507      25   96516   96513      24
   96519   96513      24   96519   96516      25   96525   96522      24   96528
   96522      24   96528   96525      25   96534   96531      24   96537   96531
      24   96537   96534      25   96543   96540      24   96546   96540      24
   96546   96543      25   96552   96549      24   96555   96549      24   96555
   96552      25   96561   96558      24   96564   96558      24   96564   96561
      25   96570   96567      24   96573   96567      24   96573   96570      25
   96579   96576      24   96582   96576      24   96582   96579      25   96588
   96585      24   96591   96585      24   96591   96588      25   96597   96594
      24   96600   96594      24   96600   96597      25   96606   96603      24
   96609   96603      24   96609   96606      25   96615   96612      24   96618
   96612      24   96618   96615      25   96624   96621      24   96627   96621
      24   96627   96624      25   96633   96630      24   96636   96630      24
   96636   96633      25   96642   96639      24   96645   96639      24   96645
   96642      25   96651   96648      24   96654   96648      24   96654   96651
      25   96660   96657      24   96663   96657      24   96663   96660      25
   96669   96666      24   96672   96666      24   96672   96669      25   96678
   96675      24   96681   96675      24   96681   96678      25   96687   96684
      24   96690   96684      24   96690   96687      25   96696   96693      24
   96699   96693      24   96699   96696      25   96705   96702      24   96708
   96702      24   96708   96705      25   96714   96711      24   96717   96711
      24   96717   96714      25   96723   96720      24   96726   96720      24
   96726   96723      25   96732   96729      24   96735   96729      24   96735
   96732      25   96741   96738      24   96744   96738      24   96744   96741
      25   96750   96747      24   96753   96747      24   96753   96750      25
   96759   96756      24   96762   96756      24   96762   96759      25   96768
   96765      24   96771   96765      24   96771   96768      25   96777   96774
      24   96780   96774      24   96780   96777      25   96786   96783      24
   96789   96783      24   96789   96786      25   96795   96792      24   96798
   96792      24   96798   96795      25   96804   96801      24   96807   96801
      24   96807   96804      25   96813   96810      24   96816   96810      24
   96816   96813      25   96822   96819      24   96825   96819      24   96825
   96822      25   96831   96828      24   96834   96828      24   96834   96831
      25   96840   96837      24   96843   96837      24   96843   96840      25
   96849   96846      24   96852   96846      24   96852   96849      25   96858
   96855      24   96861   96855      24   96861   96858      25   96867   96864
      24   96870   96864      24   96870   96867      25   96876   96873      24
   96879   96873      24   96879   96876      25   96885   96882      24   96888
   96882      24   96888   96885      25   96894   96891      24   96897   96891
      24   96897   96894      25   96903   96900      24   96906   96900      24
   96906   96903      25   96912   96909      24   96915   96909      24   96915
   96912      25   96921   96918      24   96924   96918      24   96924   96921
      25   96930   96927      24   96933   96927      24   96933   96930      25
   96939   96936      24   96942   96936      24   96942   96939      25   96948
   96945      24   96951   96945      24   96951   96948      25   96957   96954
      24   96960   96954      24   96960   96957      25   96966   96963      24
   96969   96963      24   96969   96966      25   96975   96972      24   96978
   96972      24   96978   96975      25   96984   96981      24   96987   96981
      24   96987   96984      25   96993   96990      24   96996   96990      24
   96996   96993      25   97002   96999      24   97005   96999      24   97005
   97002      25   97011   97008      24   97014   97008      24   97014   97011
      25   97020   97017      24   97023   97017      24   97023   97020      25
   97029   97026      24   97032   97026      24   97032   97029      25   97038
   97035      24   97041   97035      24   97041   97038      25   97047   97044
      24   97050   97044      24   97050   97047      25   97056   97053      24
   97059   97053      24   97059   97056      25   97065   97062      24   97068
   97062      24   97068   97065      25   97074   97071      24   97077   97071
      24   97077   97074      25   97083   97080      24   97086   97080      24
   97086   97083      25   97092   97089      24   97095   97089      24   97095
   97092      25   97101   97098      24   97104   97098      24   97104   97101
      25   97110   97107      24   97113   97107      24   97113   97110      25
   97119   97116      24   97122   97116      24   97122   97119      25   97128
   97125      24   97131   97125      24   97131   97128      25   97137   97134
      24   97140   97134      24   97140   97137      25   97146   97143      24
   97149   97143      24   97149   97146      25   97155   97152      24   97158
   97152      24   97158   97155      25   97164   97161      24   97167   97161
      24   97167   97164      25   97173   97170      24   97176   97170      24
   97176   97173      25   97182   97179      24   97185   97179      24   97185
   97182      25   97191   97188      24   97194   97188      24   97194   97191
      25   97200   97197      24   97203   97197      24   97203   97200      25
   97209   97206      24   97212   97206      24   97212   97209      25   97218
   97215      24   97221   97215      24   97221   97218      25   97227   97224
      24   97230   97224      24   97230   97227      25   97236   97233      24
   97239   97233      24   97239   97236      25   97245   97242      24   97248
   97242      24   97248   97245      25   97254   97251      24   97257   97251
      24   97257   97254      25   97263   97260      24   97266   97260      24
   97266   97263      25   97272   97269      24   97275   97269      24   97275
   97272      25   97281   97278      24   97284   97278      24   97284   97281
      25   97290   97287      24   97293   97287      24   97293   97290      25
   97299   97296      24   97302   97296      24   97302   97299      25   97308
   97305      24   97311   97305      24   97311   97308      25   97317   97314
      24   97320   97314      24   97320   97317      25   97326   97323      24
   97329   97323      24   97329   97326      25   97335   97332      24   97338
   97332      24   97338   97335      25   97344   97341      24   97347   97341
      24   97347   97344      25   97353   97350      24   97356   97350      24
   97356   97353      25   97362   97359      24   97365   97359      24   97365
   97362      25   97371   97368      24   97374   97368      24   97374   97371
      25   97380   97377      24   97383   97377      24   97383   97380      25
   97389   97386      24   97392   97386      24   97392   97389      25   97398
   97395      24   97401   97395      24   97401   97398      25   97407   97404
      24   97410   97404      24   97410   97407      25   97416   97413      24
   97419   97413      24   97419   97416      25   97425   97422      24   97428
   97422      24   97428   97425      25   97434   97431      24   97437   97431
      24   97437   97434      25   97443   97440      24   97446   97440      24
   97446   97443      25   97452   97449      24   97455   97449      24   97455
   97452      25   97461   97458      24   97464   97458      24   97464   97461
      25   97470   97467      24   97473   97467      24   97473   97470      25
   97479   97476      24   97482   97476      24   97482   97479      25   97488
   97485      24   97491   97485      24   97491   97488      25   97497   97494
      24   97500   97494      24   97500   97497      25   97506   97503      24
   97509   97503      24   97509   97506      25   97515   97512      24   97518
   97512      24   97518   97515      25   97524   97521      24   97527   97521
      24   97527   97524      25   97533   97530      24   97536   97530      24
   97536   97533      25   97542   97539      24   97545   97539      24   97545
   97542      25   97551   97548      24   97554   97548      24   97554   97551
      25   97560   97557      24   97563   97557      24   97563   97560      25
   97569   97566      24   97572   97566      24   97572   97569      25   97578
   97575      24   97581   97575      24   97581   97578      25   97587   97584
      24   97590   97584      24   97590   97587      25   97596   97593      24
   97599   97593      24   97599   97596      25   97605   97602      24   97608
   97602      24   97608   97605      25   97614   97611      24   97617   97611
      24   97617   97614      25   97623   97620      24   97626   97620      24
   97626   97623      25   97632   97629      24   97635   97629      24   97635
   97632      25   97641   97638      24   97644   97638      24   97644   97641
      25   97650   97647      24   97653   97647      24   97653   97650      25
   97659   97656      24   97662   97656      24   97662   97659      25   97668
   97665      24   97671   97665      24   97671   97668      25   97677   97674
      24   97680   97674      24   97680   97677      25   97686   97683      24
   97689   97683      24   97689   97686      25   97695   97692      24   97698
   97692      24   97698   97695      25   97704   97701      24   97707   97701
      24   97707   97704      25   97713   97710      24   97716   97710      24
   97716   97713      25   97722   97719      24   97725   97719      24   97725
   97722      25   97731   97728      24   97734   97728      24   97734   97731
      25   97740   97737      24   97743   97737      24   97743   97740      25
   97749   97746      24   97752   97746      24   97752   97749      25   97758
   97755      24   97761   97755      24   97761   97758      25   97767   97764
      24   97770   97764      24   97770   97767      25   97776   97773      24
   97779   97773      24   97779   97776      25   97785   97782      24   97788
   97782      24   97788   97785      25   97794   97791      24   97797   97791
      24   97797   97794      25   97803   97800      24   97806   97800      24
   97806   97803      25   97812   97809      24   97815   97809      24   97815
   97812      25   97821   97818      24   97824   97818      24   97824   97821
      25   97830   97827      24   97833   97827      24   97833   97830      25
   97839   97836      24   97842   97836      24   97842   97839      25   97848
   97845      24   97851   97845      24   97851   97848      25   97857   97854
      24   97860   97854      24   97860   97857      25   97866   97863      24
   97869   97863      24   97869   97866      25   97875   97872      24   97878
   97872      24   97878   97875      25   97884   97881      24   97887   97881
      24   97887   97884      25   97893   97890      24   97896   97890      24
   97896   97893      25   97902   97899      24   97905   97899      24   97905
   97902      25   97911   97908      24   97914   97908      24   97914   97911
      25   97920   97917      24   97923   97917      24   97923   97920      25
   97929   97926      24   97932   97926      24   97932   97929      25   97938
   97935      24   97941   97935      24   97941   97938      25   97947   97944
      24   97950   97944      24   97950   97947      25   97956   97953      24
   97959   97953      24   97959   97956      25   97965   97962      24   97968
   97962      24   97968   97965      25   97974   97971      24   97977   97971
      24   97977   97974      25   97983   97980      24   97986   97980      24
   97986   97983      25   97992   97989      24   97995   97989      24   97995
   97992      25   98001   97998      24   98004   97998      24   98004   98001
      25   98010   98007      24   98013   98007      24   98013   98010      25
   98019   98016      24   98022   98016      24   98022   98019      25   98028
   98025      24   98031   98025      24   98031   98028      25   98037   98034
      24   98040   98034      24   98040   98037      25   98046   98043      24
   98049   98043      24   98049   98046      25   98055   98052      24   98058
   98052      24   98058   98055      25   98064   98061      24   98067   98061
      24   98067   98064      25   98073   98070      24   98076   98070      24
   98076   98073      25   98082   98079      24   98085   98079      24   98085
   98082      25   98091   98088      24   98094   98088      24   98094   98091
      25   98100   98097      24   98103   98097      24   98103   98100      25
   98109   98106      24   98112   98106      24   98112   98109      25   98118
   98115      24   98121   98115      24   98121   98118      25   98127   98124
      24   98130   98124      24   98130   98127      25   98136   98133      24
   98139   98133      24   98139   98136      25   98145   98142      24   98148
   98142      24   98148   98145      25   98154   98151      24   98157   98151
      24   98157   98154      25   98163   98160      24   98166   98160      24
   98166   98163      25   98172   98169      24   98175   98169      24   98175
   98172      25   98181   98178      24   98184   98178      24   98184   98181
      25   98190   98187      24   98193   98187      24   98193   98190      25
   98199   98196      24   98202   98196      24   98202   98199      25   98208
   98205      24   98211   98205      24   98211   98208      25   98217   98214
      24   98220   98214      24   98220   98217      25   98226   98223      24
   98229   98223      24   98229   98226      25   98235   98232      24   98238
   98232      24   98238   98235      25   98244   98241      24   98247   98241
      24   98247   98244      25   98253   98250      24   98256   98250      24
   98256   98253      25   98262   98259      24   98265   98259      24   98265
   98262      25   98271   98268      24   98274   98268      24   98274   98271
      25   98280   98277      24   98283   98277      24   98283   98280      25
   98289   98286      24   98292   98286      24   98292   98289      25   98298
   98295      24   98301   98295      24   98301   98298      25   98307   98304
      24   98310   98304      24   98310   98307      25   98316   98313      24
   98319   98313      24   98319   98316      25   98325   98322      24   98328
   98322      24   98328   98325      25   98334   98331      24   98337   98331
      24   98337   98334      25   98343   98340      24   98346   98340      24
   98346   98343      25   98352   98349      24   98355   98349      24   98355
   98352      25   98361   98358      24   98364   98358      24   98364   98361
      25   98370   98367      24   98373   98367      24   98373   98370      25
   98379   98376      24   98382   98376      24   98382   98379      25   98388
   98385      24   98391   98385      24   98391   98388      25   98397   98394
      24   98400   98394      24   98400   98397      25   98406   98403      24
   98409   98403      24   98409   98406      25   98415   98412      24   98418
   98412      24   98418   98415      25   98424   98421      24   98427   98421
      24   98427   98424      25   98433   98430      24   98436   98430      24
   98436   98433      25   98442   98439      24   98445   98439      24   98445
   98442      25   98451   98448      24   98454   98448      24   98454   98451
      25   98460   98457      24   98463   98457      24   98463   98460      25
   98469   98466      24   98472   98466      24   98472   98469      25   98478
   98475      24   98481   98475      24   98481   98478      25   98487   98484
      24   98490   98484      24   98490   98487      25   98496   98493      24
   98499   98493      24   98499   98496      25   98505   98502      24   98508
   98502      24   98508   98505      25   98514   98511      24   98517   98511
      24   98517   98514      25   98523   98520      24   98526   98520      24
   98526   98523      25   98532   98529      24   98535   98529      24   98535
   98532      25   98541   98538      24   98544   98538      24   98544   98541
      25   98550   98547      24   98553   98547      24   98553   98550      25
   98559   98556      24   98562   98556      24   98562   98559      25   98568
   98565      24   98571   98565      24   98571   98568      25   98577   98574
      24   98580   98574      24   98580   98577      25   98586   98583      24
   98589   98583      24   98589   98586      25   98595   98592      24   98598
   98592      24   98598   98595      25   98604   98601      24   98607   98601
      24   98607   98604      25   98613   98610      24   98616   98610      24
   98616   98613      25   98622   98619      24   98625   98619      24   98625
   98622      25   98631   98628      24   98634   98628      24   98634   98631
      25   98640   98637      24   98643   98637      24   98643   98640      25
   98649   98646      24   98652   98646      24   98652   98649      25   98658
   98655      24   98661   98655      24   98661   98658      25   98667   98664
      24   98670   98664      24   98670   98667      25   98676   98673      24
   98679   98673      24   98679   98676      25   98685   98682      24   98688
   98682      24   98688   98685      25   98694   98691      24   98697   98691
      24   98697   98694      25   98703   98700      24   98706   98700      24
   98706   98703      25   98712   98709      24   98715   98709      24   98715
   98712      25   98721   98718      24   98724   98718      24   98724   98721
      25   98730   98727      24   98733   98727      24   98733   98730      25
   98739   98736      24   98742   98736      24   98742   98739      25   98748
   98745      24   98751   98745      24   98751   98748      25   98757   98754
      24   98760   98754      24   98760   98757      25   98766   98763      24
   98769   98763      24   98769   98766      25   98775   98772      24   98778
   98772      24   98778   98775      25   98784   98781      24   98787   98781
      24   98787   98784      25   98793   98790      24   98796   98790      24
   98796   98793      25   98802   98799      24   98805   98799      24   98805
   98802      25   98811   98808      24   98814   98808      24   98814   98811
      25   98820   98817      24   98823   98817      24   98823   98820      25
   98829   98826      24   98832   98826      24   98832   98829      25   98838
   98835      24   98841   98835      24   98841   98838      25   98847   98844
      24   98850   98844      24   98850   98847      25   98856   98853      24
   98859   98853      24   98859   98856      25   98865   98862      24   98868
   98862      24   98868   98865      25   98874   98871      24   98877   98871
      24   98877   98874      25   98883   98880      24   98886   98880      24
   98886   98883      25   98892   98889      24   98895   98889      24   98895
   98892      25   98901   98898      24   98904   98898      24   98904   98901
      25   98910   98907      24   98913   98907      24   98913   98910      25
   98919   98916      24   98922   98916      24   98922   98919      25   98928
   98925      24   98931   98925      24   98931   98928      25   98937   98934
      24   98940   98934      24   98940   98937      25   98946   98943      24
   98949   98943      24   98949   98946      25   98955   98952      24   98958
   98952      24   98958   98955      25   98964   98961      24   98967   98961
      24   98967   98964      25   98973   98970      24   98976   98970      24
   98976   98973      25   98982   98979      24   98985   98979      24   98985
   98982      25   98991   98988      24   98994   98988      24   98994   98991
      25   99000   98997      24   99003   98997      24   99003   99000      25
   99009   99006      24   99012   99006      24   99012   99009      25   99018
   99015      24   99021   99015      24   99021   99018      25   99027   99024
      24   99030   99024      24   99030   99027      25   99036   99033      24
   99039   99033      24   99039   99036      25   99045   99042      24   99048
   99042      24   99048   99045      25   99054   99051      24   99057   99051
      24   99057   99054      25   99063   99060      24   99066   99060      24
   99066   99063      25   99072   99069      24   99075   99069      24   99075
   99072      25   99081   99078      24   99084   99078      24   99084   99081
      25   99090   99087      24   99093   99087      24   99093   99090      25
   99099   99096      24   99102   99096      24   99102   99099      25   99108
   99105      24   99111   99105      24   99111   99108      25   99117   99114
      24   99120   99114      24   99120   99117      25   99126   99123      24
   99129   99123      24   99129   99126      25   99135   99132      24   99138
   99132      24   99138   99135      25   99144   99141      24   99147   99141
      24   99147   99144      25   99153   99150      24   99156   99150      24
   99156   99153      25   99162   99159      24   99165   99159      24   99165
   99162      25   99171   99168      24   99174   99168      24   99174   99171
      25   99180   99177      24   99183   99177      24   99183   99180      25
   99189   99186      24   99192   99186      24   99192   99189      25   99198
   99195      24   99201   99195      24   99201   99198      25   99207   99204
      24   99210   99204      24   99210   99207      25   99216   99213      24
   99219   99213      24   99219   99216      25   99225   99222      24   99228
   99222      24   99228   99225      25   99234   99231      24   99237   99231
      24   99237   99234      25   99243   99240      24   99246   99240      24
   99246   99243      25   99252   99249      24   99255   99249      24   99255
   99252      25   99261   99258      24   99264   99258      24   99264   99261
      25   99270   99267      24   99273   99267      24   99273   99270      25
   99279   99276      24   99282   99276      24   99282   99279      25   99288
   99285      24   99291   99285      24   99291   99288      25   99297   99294
      24   99300   99294      24   99300   99297      25   99306   99303      24
   99309   99303      24   99309   99306      25   99315   99312      24   99318
   99312      24   99318   99315      25   99324   99321      24   99327   99321
      24   99327   99324      25   99333   99330      24   99336   99330      24
   99336   99333      25   99342   99339      24   99345   99339      24   99345
   99342      25   99351   99348      24   99354   99348      24   99354   99351
      25   99360   99357      24   99363   99357      24   99363   99360      25
   99369   99366      24   99372   99366      24   99372   99369      25   99378
   99375      24   99381   99375      24   99381   99378      25   99387   99384
      24   99390   99384      24   99390   99387      25   99396   99393      24
   99399   99393      24   99399   99396      25   99405   99402      24   99408
   99402      24   99408   99405      25   99414   99411      24   99417   99411
      24   99417   99414      25   99423   99420      24   99426   99420      24
   99426   99423      25   99432   99429      24   99435   99429      24   99435
   99432      25   99441   99438      24   99444   99438      24   99444   99441
      25   99450   99447      24   99453   99447      24   99453   99450      25
   99459   99456      24   99462   99456      24   99462   99459      25   99468
   99465      24   99471   99465      24   99471   99468      25   99477   99474
      24   99480   99474      24   99480   99477      25   99486   99483      24
   99489   99483      24   99489   99486      25   99495   99492      24   99498
   99492      24   99498   99495      25   99504   99501      24   99507   99501
      24   99507   99504      25   99513   99510      24   99516   99510      24
   99516   99513      25   99522   99519      24   99525   99519      24   99525
   99522      25   99531   99528      24   99534   99528      24   99534   99531
      25   99540   99537      24   99543   99537      24   99543   99540      25
   99549   99546      24   99552   99546      24   99552   99549      25   99558
   99555      24   99561   99555      24   99561   99558      25   99567   99564
      24   99570   99564      24   99570   99567      25   99576   99573      24
   99579   99573      24   99579   99576      25   99585   99582      24   99588
   99582      24   99588   99585      25   99594   99591      24   99597   99591
      24   99597   99594      25   99603   99600      24   99606   99600      24
   99606   99603      25   99612   99609      24   99615   99609      24   99615
   99612      25   99621   99618      24   99624   99618      24   99624   99621
      25   99630   99627      24   99633   99627      24   99633   99630      25
   99639   99636      24   99642   99636      24   99642   99639      25   99648
   99645      24   99651   99645      24   99651   99648      25   99657   99654
      24   99660   99654      24   99660   99657      25   99666   99663      24
   99669   99663      24   99669   99666      25   99675   99672      24   99678
   99672      24   99678   99675      25   99684   99681      24   99687   99681
      24   99687   99684      25   99693   99690      24   99696   99690      24
   99696   99693      25   99702   99699      24   99705   99699      24   99705
   99702      25   99711   99708      24   99714   99708      24   99714   99711
      25   99720   99717      24   99723   99717      24   99723   99720      25
   99729   99726      24   99732   99726      24   99732   99729      25   99738
   99735      24   99741   99735      24   99741   99738      25   99747   99744
      24   99750   99744      24   99750   99747      25   99756   99753      24
   99759   99753      24   99759   99756      25   99765   99762      24   99768
   99762      24   99768   99765      25   99774   99771      24   99777   99771
      24   99777   99774      25   99783   99780      24   99786   99780      24
   99786   99783      25   99792   99789      24   99795   99789      24   99795
   99792      25   99801   99798      24   99804   99798      24   99804   99801
      25   99810   99807      24   99813   99807      24   99813   99810      25
   99819   99816      24   99822   99816      24   99822   99819      25   99828
   99825      24   99831   99825      24   99831   99828      25   99837   99834
      24   99840   99834      24   99840   99837      25   99846   99843      24
   99849   99843      24   99849   99846      25   99855   99852      24   99858
   99852      24   99858   99855      25   99864   99861      24   99867   99861
      24   99867   99864      25   99873   99870      24   99876   99870      24
   99876   99873      25   99882   99879      24   99885   99879      24   99885
   99882      25   99891   99888      24   99894   99888      24   99894   99891
      25   99900   99897      24   99903   99897      24   99903   99900      25
   99909   99906      24   99912   99906      24   99912   99909      25   99918
   99915      24   99921   99915      24   99921   99918      25   99927   99924
      24   99930   99924      24   99930   99927      25   99936   99933      24
   99939   99933      24   99939   99936      25   99945   99942      24   99948
   99942      24   99948   99945      25   99954   99951      24   99957   99951
      24   99957   99954      25   99963   99960      24   99966   99960      24
   99966   99963      25   99972   99969      24   99975   99969      24   99975
   99972      25   99981   99978      24   99984   99978      24   99984   99981
      25   99990   99987      24   99993   99987      24   99993   99990      25
   99999   99996      24  100002   99996      24  100002   99999      25  100008
  100005      24  100011  100005      24  100011  100008      25  100017  100014
      24  100020  100014      24  100020  100017      25  100026  100023      24
  100029  100023      24  100029  100026      25  100035  100032      24  100038
  100032      24  100038  100035      25  100044  100041      24  100047  100041
      24  100047  100044      25  100053  100050      24  100056  100050      24
  100056  100053      25  100062  100059      24  100065  100059      24  100065
  100062      25  100071  100068      24  100074  100068      24  100074  100071
      25  100080  100077      24  100083  100077      24  100083  100080      25
  100089  100086      24  100092  100086      24  100092  100089      25  100098
  100095      24  100101  100095      24  100101  100098      25  100107  100104
      24  100110  100104      24  100110  100107      25  100116  100113      24
  100119  100113      24  100119  100116      25  100125  100122      24  100128
  100122      24  100128  100125      25  100134  100131      24  100137  100131
      24  100137  100134      25  100143  100140      24  100146  100140      24
  100146  100143      25  100152  100149      24  100155  100149      24  100155
  100152      25  100161  100158      24  100164  100158      24  100164  100161
      25  100170  100167      24  100173  100167      24  100173  100170      25
  100179  100176      24  100182  100176      24  100182  100179      25  100188
  100185      24  100191  100185      24  100191  100188      25  100197  100194
      24  100200  100194      24  100200  100197      25  100206  100203      24
  100209  100203      24  100209  100206      25  100215  100212      24  100218
  100212      24  100218  100215      25  100224  100221      24  100227  100221
      24  100227  100224      25  100233  100230      24  100236  100230      24
  100236  100233      25  100242  100239      24  100245  100239      24  100245
  100242      25  100251  100248      24  100254  100248      24  100254  100251
      25  100260  100257      24  100263  100257      24  100263  100260      25
  100269  100266      24  100272  100266      24  100272  100269      25  100278
  100275      24  100281  100275      24  100281  100278      25  100287  100284
      24  100290  100284      24  100290  100287      25  100296  100293      24
  100299  100293      24  100299  100296      25  100305  100302      24  100308
  100302      24  100308  100305      25  100314  100311      24  100317  100311
      24  100317  100314      25  100323  100320      24  100326  100320      24
  100326  100323      25  100332  100329      24  100335  100329      24  100335
  100332      25  100341  100338      24  100344  100338      24  100344  100341
      25  100350  100347      24  100353  100347      24  100353  100350      25
  100359  100356      24  100362  100356      24  100362  100359      25  100368
  100365      24  100371  100365      24  100371  100368      25  100377  100374
      24  100380  100374      24  100380  100377      25  100386  100383      24
  100389  100383      24  100389  100386      25  100395  100392      24  100398
  100392      24  100398  100395      25  100404  100401      24  100407  100401
      24  100407  100404      25  100413  100410      24  100416  100410      24
  100416  100413      25  100422  100419      24  100425  100419      24  100425
  100422      25  100431  100428      24  100434  100428      24  100434  100431
      25  100440  100437      24  100443  100437      24  100443  100440      25
  100449  100446      24  100452  100446      24  100452  100449      25  100458
  100455      24  100461  100455      24  100461  100458      25  100467  100464
      24  100470  100464      24  100470  100467      25  100476  100473      24
  100479  100473      24  100479  100476      25  100485  100482      24  100488
  100482      24  100488  100485      25  100494  100491      24  100497  100491
      24  100497  100494      25  100503  100500      24  100506  100500      24
  100506  100503      25  100512  100509      24  100515  100509      24  100515
  100512      25  100521  100518      24  100524  100518      24  100524  100521
      25  100530  100527      24  100533  100527      24  100533  100530      25
  100539  100536      24  100542  100536      24  100542  100539      25  100548
  100545      24  100551  100545      24  100551  100548      25  100557  100554
      24  100560  100554      24  100560  100557      25  100566  100563      24
  100569  100563      24  100569  100566      25  100575  100572      24  100578
  100572      24  100578  100575      25  100584  100581      24  100587  100581
      24  100587  100584      25  100593  100590      24  100596  100590      24
  100596  100593      25  100602  100599      24  100605  100599      24  100605
  100602      25  100611  100608      24  100614  100608      24  100614  100611
      25  100620  100617      24  100623  100617      24  100623  100620      25
  100629  100626      24  100632  100626      24  100632  100629      25  100638
  100635      24  100641  100635      24  100641  100638      25  100647  100644
      24  100650  100644      24  100650  100647      25  100656  100653      24
  100659  100653      24  100659  100656      25  100665  100662      24  100668
  100662      24  100668  100665      25  100674  100671      24  100677  100671
      24  100677  100674      25  100683  100680      24  100686  100680      24
  100686  100683      25  100692  100689      24  100695  100689      24  100695
  100692      25  100701  100698      24  100704  100698      24  100704  100701
      25  100710  100707      24  100713  100707      24  100713  100710      25
  100719  100716      24  100722  100716      24  100722  100719      25  100728
  100725      24  100731  100725      24  100731  100728      25  100737  100734
      24  100740  100734      24  100740  100737      25  100746  100743      24
  100749  100743      24  100749  100746      25  100755  100752      24  100758
  100752      24  100758  100755      25  100764  100761      24  100767  100761
      24  100767  100764      25  100773  100770      24  100776  100770      24
  100776  100773      25  100782  100779      24  100785  100779      24  100785
  100782      25  100791  100788      24  100794  100788      24  100794  100791
      25  100800  100797      24  100803  100797      24  100803  100800      25
  100809  100806      24  100812  100806      24  100812  100809      25  100818
  100815      24  100821  100815      24  100821  100818      25  100827  100824
      24  100830  100824      24  100830  100827      25  100836  100833      24
  100839  100833      24  100839  100836      25  100845  100842      24  100848
  100842      24  100848  100845      25  100854  100851      24  100857  100851
      24  100857  100854      25  100863  100860      24  100866  100860      24
  100866  100863      25  100872  100869      24  100875  100869      24  100875
  100872      25  100881  100878      24  100884  100878      24  100884  100881
      25  100890  100887      24  100893  100887      24  100893  100890      25
  100899  100896      24  100902  100896      24  100902  100899      25  100908
  100905      24  100911  100905      24  100911  100908      25  100917  100914
      24  100920  100914      24  100920  100917      25  100926  100923      24
  100929  100923      24  100929  100926      25  100935  100932      24  100938
  100932      24  100938  100935      25  100944  100941      24  100947  100941
      24  100947  100944      25  100953  100950      24  100956  100950      24
  100956  100953      25  100962  100959      24  100965  100959      24  100965
  100962      25  100971  100968      24  100974  100968      24  100974  100971
      25  100980  100977      24  100983  100977      24  100983  100980      25
  100989  100986      24  100992  100986      24  100992  100989      25  100998
  100995      24  101001  100995      24  101001  100998      25  101007  101004
      24  101010  101004      24  101010  101007      25  101016  101013      24
  101019  101013      24  101019  101016      25  101025  101022      24  101028
  101022      24  101028  101025      25  101034  101031      24  101037  101031
      24  101037  101034      25  101043  101040      24  101046  101040      24
  101046  101043      25  101052  101049      24  101055  101049      24  101055
  101052      25  101061  101058      24  101064  101058      24  101064  101061
      25  101070  101067      24  101073  101067      24  101073  101070      25
  101079  101076      24  101082  101076      24  101082  101079      25  101088
  101085      24  101091  101085      24  101091  101088      25  101097  101094
      24  101100  101094      24  101100  101097      25  101106  101103      24
  101109  101103      24  101109  101106      25  101115  101112      24  101118
  101112      24  101118  101115      25  101124  101121      24  101127  101121
      24  101127  101124      25  101133  101130      24  101136  101130      24
  101136  101133      25  101142  101139      24  101145  101139      24  101145
  101142      25  101151  101148      24  101154  101148      24  101154  101151
      25  101160  101157      24  101163  101157      24  101163  101160      25
  101169  101166      24  101172  101166      24  101172  101169      25  101178
  101175      24  101181  101175      24  101181  101178      25  101187  101184
      24  101190  101184      24  101190  101187      25  101196  101193      24
  101199  101193      24  101199  101196      25  101205  101202      24  101208
  101202      24  101208  101205      25  101214  101211      24  101217  101211
      24  101217  101214      25  101223  101220      24  101226  101220      24
  101226  101223      25  101232  101229      24  101235  101229      24  101235
  101232      25  101241  101238      24  101244  101238      24  101244  101241
      25  101250  101247      24  101253  101247      24  101253  101250      25
  101259  101256      24  101262  101256      24  101262  101259      25  101268
  101265      24  101271  101265      24  101271  101268      25  101277  101274
      24  101280  101274      24  101280  101277      25  101286  101283      24
  101289  101283      24  101289  101286      25  101295  101292      24  101298
  101292      24  101298  101295      25  101304  101301      24  101307  101301
      24  101307  101304      25  101313  101310      24  101316  101310      24
  101316  101313      25  101322  101319      24  101325  101319      24  101325
  101322      25  101331  101328      24  101334  101328      24  101334  101331
      25  101340  101337      24  101343  101337      24  101343  101340      25
  101349  101346      24  101352  101346      24  101352  101349      25  101358
  101355      24  101361  101355      24  101361  101358      25  101367  101364
      24  101370  101364      24  101370  101367      25  101376  101373      24
  101379  101373      24  101379  101376      25  101385  101382      24  101388
  101382      24  101388  101385      25  101394  101391      24  101397  101391
      24  101397  101394      25  101403  101400      24  101406  101400      24
  101406  101403      25  101412  101409      24  101415  101409      24  101415
  101412      25  101421  101418      24  101424  101418      24  101424  101421
      25  101430  101427      24  101433  101427      24  101433  101430      25
  101439  101436      24  101442  101436      24  101442  101439      25  101448
  101445      24  101451  101445      24  101451  101448      25  101457  101454
      24  101460  101454      24  101460  101457      25  101466  101463      24
  101469  101463      24  101469  101466      25  101475  101472      24  101478
  101472      24  101478  101475      25  101484  101481      24  101487  101481
      24  101487  101484      25  101493  101490      24  101496  101490      24
  101496  101493      25  101502  101499      24  101505  101499      24  101505
  101502      25  101511  101508      24  101514  101508      24  101514  101511
      25  101520  101517      24  101523  101517      24  101523  101520      25
  101529  101526      24  101532  101526      24  101532  101529      25  101538
  101535      24  101541  101535      24  101541  101538      25  101547  101544
      24  101550  101544      24  101550  101547      25  101556  101553      24
  101559  101553      24  101559  101556      25  101565  101562      24  101568
  101562      24  101568  101565      25  101574  101571      24  101577  101571
      24  101577  101574      25  101583  101580      24  101586  101580      24
  101586  101583      25  101592  101589      24  101595  101589      24  101595
  101592      25  101601  101598      24  101604  101598      24  101604  101601
      25  101610  101607      24  101613  101607      24  101613  101610      25
  101619  101616      24  101622  101616      24  101622  101619      25  101628
  101625      24  101631  101625      24  101631  101628      25  101637  101634
      24  101640  101634      24  101640  101637      25  101646  101643      24
  101649  101643      24  101649  101646      25  101655  101652      24  101658
  101652      24  101658  101655      25  101664  101661      24  101667  101661
      24  101667  101664      25  101673  101670      24  101676  101670      24
  101676  101673      25  101682  101679      24  101685  101679      24  101685
  101682      25  101691  101688      24  101694  101688      24  101694  101691
      25  101700  101697      24  101703  101697      24  101703  101700      25
  101709  101706      24  101712  101706      24  101712  101709      25  101718
  101715      24  101721  101715      24  101721  101718      25  101727  101724
      24  101730  101724      24  101730  101727      25  101736  101733      24
  101739  101733      24  101739  101736      25  101745  101742      24  101748
  101742      24  101748  101745      25  101754  101751      24  101757  101751
      24  101757  101754      25  101763  101760      24  101766  101760      24
  101766  101763      25  101772  101769      24  101775  101769      24  101775
  101772      25  101781  101778      24  101784  101778      24  101784  101781
      25  101790  101787      24  101793  101787      24  101793  101790      25
  101799  101796      24  101802  101796      24  101802  101799      25  101808
  101805      24  101811  101805      24  101811  101808      25  101817  101814
      24  101820  101814      24  101820  101817      25  101826  101823      24
  101829  101823      24  101829  101826      25  101835  101832      24  101838
  101832      24  101838  101835      25  101844  101841      24  101847  101841
      24  101847  101844      25  101853  101850      24  101856  101850      24
  101856  101853      25  101862  101859      24  101865  101859      24  101865
  101862      25  101871  101868      24  101874  101868      24  101874  101871
      25  101880  101877      24  101883  101877      24  101883  101880      25
  101889  101886      24  101892  101886      24  101892  101889      25  101898
  101895      24  101901  101895      24  101901  101898      25  101907  101904
      24  101910  101904      24  101910  101907      25  101916  101913      24
  101919  101913      24  101919  101916      25  101925  101922      24  101928
  101922      24  101928  101925      25  101934  101931      24  101937  101931
      24  101937  101934      25  101943  101940      24  101946  101940      24
  101946  101943      25  101952  101949      24  101955  101949      24  101955
  101952      25  101961  101958      24  101964  101958      24  101964  101961
      25  101970  101967      24  101973  101967      24  101973  101970      25
  101979  101976      24  101982  101976      24  101982  101979      25  101988
  101985      24  101991  101985      24  101991  101988      25  101997  101994
      24  102000  101994      24  102000  101997      25  102006  102003      24
  102009  102003      24  102009  102006      25  102015  102012      24  102018
  102012      24  102018  102015      25  102024  102021      24  102027  102021
      24  102027  102024      25  102033  102030      24  102036  102030      24
  102036  102033      25  102042  102039      24  102045  102039      24  102045
  102042      25  102051  102048      24  102054  102048      24  102054  102051
      25  102060  102057      24  102063  102057      24  102063  102060      25
  102069  102066      24  102072  102066      24  102072  102069      25  102078
  102075      24  102081  102075      24  102081  102078      25  102087  102084
      24  102090  102084      24  102090  102087      25  102096  102093      24
  102099  102093      24  102099  102096      25  102105  102102      24  102108
  102102      24  102108  102105      25  102114  102111      24  102117  102111
      24  102117  102114      25  102123  102120      24  102126  102120      24
  102126  102123      25  102132  102129      24  102135  102129      24  102135
  102132      25  102141  102138      24  102144  102138      24  102144  102141
      25  102150  102147      24  102153  102147      24  102153  102150      25
  102159  102156      24  102162  102156      24  102162  102159      25  102168
  102165      24  102171  102165      24  102171  102168      25  102177  102174
      24  102180  102174      24  102180  102177      25  102186  102183      24
  102189  102183      24  102189  102186      25  102195  102192      24  102198
  102192      24  102198  102195      25  102204  102201      24  102207  102201
      24  102207  102204      25  102213  102210      24  102216  102210      24
  102216  102213      25  102222  102219      24  102225  102219      24  102225
  102222      25  102231  102228      24  102234  102228      24  102234  102231
      25  102240  102237      24  102243  102237      24  102243  102240      25
  102249  102246      24  102252  102246      24  102252  102249      25  102258
  102255      24  102261  102255      24  102261  102258      25  102267  102264
      24  102270  102264      24  102270  102267      25  102276  102273      24
  102279  102273      24  102279  102276      25  102285  102282      24  102288
  102282      24  102288  102285      25  102294  102291      24  102297  102291
      24  102297  102294      25  102303  102300      24  102306  102300      24
  102306  102303      25  102312  102309      24  102315  102309      24  102315
  102312      25  102321  102318      24  102324  102318      24  102324  102321
      25  102330  102327      24  102333  102327      24  102333  102330      25
  102339  102336      24  102342  102336      24  102342  102339      25  102348
  102345      24  102351  102345      24  102351  102348      25  102357  102354
      24  102360  102354      24  102360  102357      25  102366  102363      24
  102369  102363      24  102369  102366      25  102375  102372      24  102378
  102372      24  102378  102375      25  102384  102381      24  102387  102381
      24  102387  102384      25  102393  102390      24  102396  102390      24
  102396  102393      25  102402  102399      24  102405  102399      24  102405
  102402      25  102411  102408      24  102414  102408      24  102414  102411
      25  102420  102417      24  102423  102417      24  102423  102420      25
  102429  102426      24  102432  102426      24  102432  102429      25  102438
  102435      24  102441  102435      24  102441  102438      25  102447  102444
      24  102450  102444      24  102450  102447      25  102456  102453      24
  102459  102453      24  102459  102456      25  102465  102462      24  102468
  102462      24  102468  102465      25  102474  102471      24  102477  102471
      24  102477  102474      25  102483  102480      24  102486  102480      24
  102486  102483      25  102492  102489      24  102495  102489      24  102495
  102492      25  102501  102498      24  102504  102498      24  102504  102501
      25  102510  102507      24  102513  102507      24  102513  102510      25
  102519  102516      24  102522  102516      24  102522  102519      25  102528
  102525      24  102531  102525      24  102531  102528      25  102537  102534
      24  102540  102534      24  102540  102537      25  102546  102543      24
  102549  102543      24  102549  102546      25  102555  102552      24  102558
  102552      24  102558  102555      25  102564  102561      24  102567  102561
      24  102567  102564      25  102573  102570      24  102576  102570      24
  102576  102573      25  102582  102579      24  102585  102579      24  102585
  102582      25  102591  102588      24  102594  102588      24  102594  102591
      25  102600  102597      24  102603  102597      24  102603  102600      25
  102609  102606      24  102612  102606      24  102612  102609      25  102618
  102615      24  102621  102615      24  102621  102618      25  102627  102624
      24  102630  102624      24  102630  102627      25  102636  102633      24
  102639  102633      24  102639  102636      25  102645  102642      24  102648
  102642      24  102648  102645      25  102654  102651      24  102657  102651
      24  102657  102654      25  102663  102660      24  102666  102660      24
  102666  102663      25  102672  102669      24  102675  102669      24  102675
  102672      25  102681  102678      24  102684  102678      24  102684  102681
      25  102690  102687      24  102693  102687      24  102693  102690      25
  102699  102696      24  102702  102696      24  102702  102699      25  102708
  102705      24  102711  102705      24  102711  102708      25  102717  102714
      24  102720  102714      24  102720  102717      25  102726  102723      24
  102729  102723      24  102729  102726      25  102735  102732      24  102738
  102732      24  102738  102735      25  102744  102741      24  102747  102741
      24  102747  102744      25  102753  102750      24  102756  102750      24
  102756  102753      25  102762  102759      24  102765  102759      24  102765
  102762      25  102771  102768      24  102774  102768      24  102774  102771
      25  102780  102777      24  102783  102777      24  102783  102780      25
  102789  102786      24  102792  102786      24  102792  102789      25  102798
  102795      24  102801  102795      24  102801  102798      25  102807  102804
      24  102810  102804      24  102810  102807      25  102816  102813      24
  102819  102813      24  102819  102816      25  102825  102822      24  102828
  102822      24  102828  102825      25  102834  102831      24  102837  102831
      24  102837  102834      25  102843  102840      24  102846  102840      24
  102846  102843      25  102852  102849      24  102855  102849      24  102855
  102852      25  102861  102858      24  102864  102858      24  102864  102861
      25  102870  102867      24  102873  102867      24  102873  102870      25
  102879  102876      24  102882  102876      24  102882  102879      25  102888
  102885      24  102891  102885      24  102891  102888      25  102897  102894
      24  102900  102894      24  102900  102897      25  102906  102903      24
  102909  102903      24  102909  102906      25  102915  102912      24  102918
  102912      24  102918  102915      25  102924  102921      24  102927  102921
      24  102927  102924      25  102933  102930      24  102936  102930      24
  102936  102933      25  102942  102939      24  102945  102939      24  102945
  102942      25  102951  102948      24  102954  102948      24  102954  102951
      25  102960  102957      24  102963  102957      24  102963  102960      25
  102969  102966      24  102972  102966      24  102972  102969      25  102978
  102975      24  102981  102975      24  102981  102978      25  102987  102984
      24  102990  102984      24  102990  102987      25  102996  102993      24
  102999  102993      24  102999  102996      25  103005  103002      24  103008
  103002      24  103008  103005      25  103014  103011      24  103017  103011
      24  103017  103014      25  103023  103020      24  103026  103020      24
  103026  103023      25  103032  103029      24  103035  103029      24  103035
  103032      25  103041  103038      24  103044  103038      24  103044  103041
      25  103050  103047      24  103053  103047      24  103053  103050      25
  103059  103056      24  103062  103056      24  103062  103059      25  103068
  103065      24  103071  103065      24  103071  103068      25  103077  103074
      24  103080  103074      24  103080  103077      25  103086  103083      24
  103089  103083      24  103089  103086      25  103095  103092      24  103098
  103092      24  103098  103095      25  103104  103101      24  103107  103101
      24  103107  103104      25  103113  103110      24  103116  103110      24
  103116  103113      25  103122  103119      24  103125  103119      24  103125
  103122      25  103131  103128      24  103134  103128      24  103134  103131
      25  103140  103137      24  103143  103137      24  103143  103140      25
  103149  103146      24  103152  103146      24  103152  103149      25  103158
  103155      24  103161  103155      24  103161  103158      25  103167  103164
      24  103170  103164      24  103170  103167      25  103176  103173      24
  103179  103173      24  103179  103176      25  103185  103182      24  103188
  103182      24  103188  103185      25  103194  103191      24  103197  103191
      24  103197  103194      25  103203  103200      24  103206  103200      24
  103206  103203      25  103212  103209      24  103215  103209      24  103215
  103212      25  103221  103218      24  103224  103218      24  103224  103221
      25  103230  103227      24  103233  103227      24  103233  103230      25
  103239  103236      24  103242  103236      24  103242  103239      25  103248
  103245      24  103251  103245      24  103251  103248      25  103257  103254
      24  103260  103254      24  103260  103257      25  103266  103263      24
  103269  103263      24  103269  103266      25  103275  103272      24  103278
  103272      24  103278  103275      25  103284  103281      24  103287  103281
      24  103287  103284      25  103293  103290      24  103296  103290      24
  103296  103293      25  103302  103299      24  103305  103299      24  103305
  103302      25  103311  103308      24  103314  103308      24  103314  103311
      25  103320  103317      24  103323  103317      24  103323  103320      25
  103329  103326      24  103332  103326      24  103332  103329      25  103338
  103335      24  103341  103335      24  103341  103338      25  103347  103344
      24  103350  103344      24  103350  103347      25  103356  103353      24
  103359  103353      24  103359  103356      25  103365  103362      24  103368
  103362      24  103368  103365      25  103374  103371      24  103377  103371
      24  103377  103374      25  103383  103380      24  103386  103380      24
  103386  103383      25  103392  103389      24  103395  103389      24  103395
  103392      25  103401  103398      24  103404  103398      24  103404  103401
      25  103410  103407      24  103413  103407      24  103413  103410      25
  103419  103416      24  103422  103416      24  103422  103419      25  103428
  103425      24  103431  103425      24  103431  103428      25  103437  103434
      24  103440  103434      24  103440  103437      25  103446  103443      24
  103449  103443      24  103449  103446      25  103455  103452      24  103458
  103452      24  103458  103455      25  103464  103461      24  103467  103461
      24  103467  103464      25  103473  103470      24  103476  103470      24
  103476  103473      25  103482  103479      24  103485  103479      24  103485
  103482      25  103491  103488      24  103494  103488      24  103494  103491
      25  103500  103497      24  103503  103497      24  103503  103500      25
  103509  103506      24  103512  103506      24  103512  103509      25  103518
  103515      24  103521  103515      24  103521  103518      25  103527  103524
      24  103530  103524      24  103530  103527      25  103536  103533      24
  103539  103533      24  103539  103536      25  103545  103542      24  103548
  103542      24  103548  103545      25  103554  103551      24  103557  103551
      24  103557  103554      25  103563  103560      24  103566  103560      24
  103566  103563      25  103572  103569      24  103575  103569      24  103575
  103572      25  103581  103578      24  103584  103578      24  103584  103581
      25  103590  103587      24  103593  103587      24  103593  103590      25
  103599  103596      24  103602  103596      24  103602  103599      25  103608
  103605      24  103611  103605      24  103611  103608      25  103617  103614
      24  103620  103614      24  103620  103617      25  103626  103623      24
  103629  103623      24  103629  103626      25  103635  103632      24  103638
  103632      24  103638  103635      25  103644  103641      24  103647  103641
      24  103647  103644      25  103653  103650      24  103656  103650      24
  103656  103653      25  103662  103659      24  103665  103659      24  103665
  103662      25  103671  103668      24  103674  103668      24  103674  103671
      25  103680  103677      24  103683  103677      24  103683  103680      25
  103689  103686      24  103692  103686      24  103692  103689      25  103698
  103695      24  103701  103695      24  103701  103698      25  103707  103704
      24  103710  103704      24  103710  103707      25  103716  103713      24
  103719  103713      24  103719  103716      25  103725  103722      24  103728
  103722      24  103728  103725      25  103734  103731      24  103737  103731
      24  103737  103734      25  103743  103740      24  103746  103740      24
  103746  103743      25  103752  103749      24  103755  103749      24  103755
  103752      25  103761  103758      24  103764  103758      24  103764  103761
      25  103770  103767      24  103773  103767      24  103773  103770      25
  103779  103776      24  103782  103776      24  103782  103779      25  103788
  103785      24  103791  103785      24  103791  103788      25  103797  103794
      24  103800  103794      24  103800  103797      25  103806  103803      24
  103809  103803      24  103809  103806      25  103815  103812      24  103818
  103812      24  103818  103815      25  103824  103821      24  103827  103821
      24  103827  103824      25  103833  103830      24  103836  103830      24
  103836  103833      25  103842  103839      24  103845  103839      24  103845
  103842      25  103851  103848      24  103854  103848      24  103854  103851
      25  103860  103857      24  103863  103857      24  103863  103860      25
  103869  103866      24  103872  103866      24  103872  103869      25  103878
  103875      24  103881  103875      24  103881  103878      25  103887  103884
      24  103890  103884      24  103890  103887      25  103896  103893      24
  103899  103893      24  103899  103896      25  103905  103902      24  103908
  103902      24  103908  103905      25  103914  103911      24  103917  103911
      24  103917  103914      25  103923  103920      24  103926  103920      24
  103926  103923      25  103932  103929      24  103935  103929      24  103935
  103932      25  103941  103938      24  103944  103938      24  103944  103941
      25  103950  103947      24  103953  103947      24  103953  103950      25
  103959  103956      24  103962  103956      24  103962  103959      25  103968
  103965      24  103971  103965      24  103971  103968      25  103977  103974
      24  103980  103974      24  103980  103977      25  103986  103983      24
  103989  103983      24  103989  103986      25  103995  103992      24  103998
  103992      24  103998  103995      25  104004  104001      24  104007  104001
      24  104007  104004      25  104013  104010      24  104016  104010      24
  104016  104013      25  104022  104019      24  104025  104019      24  104025
  104022      25  104031  104028      24  104034  104028      24  104034  104031
      25  104040  104037      24  104043  104037      24  104043  104040      25
  104049  104046      24  104052  104046      24  104052  104049      25  104058
  104055      24  104061  104055      24  104061  104058      25  104067  104064
      24  104070  104064      24  104070  104067      25  104076  104073      24
  104079  104073      24  104079  104076      25  104085  104082      24  104088
  104082      24  104088  104085      25  104094  104091      24  104097  104091
      24  104097  104094      25  104103  104100      24  104106  104100      24
  104106  104103      25  104112  104109      24  104115  104109      24  104115
  104112      25  104121  104118      24  104124  104118      24  104124  104121
      25  104130  104127      24  104133  104127      24  104133  104130      25
  104139  104136      24  104142  104136      24  104142  104139      25  104148
  104145      24  104151  104145      24  104151  104148      25  104157  104154
      24  104160  104154      24  104160  104157      25  104166  104163      24
  104169  104163      24  104169  104166      25  104175  104172      24  104178
  104172      24  104178  104175      25  104184  104181      24  104187  104181
      24  104187  104184      25  104193  104190      24  104196  104190      24
  104196  104193      25  104202  104199      24  104205  104199      24  104205
  104202      25  104211  104208      24  104214  104208      24  104214  104211
      25  104220  104217      24  104223  104217      24  104223  104220      25
  104229  104226      24  104232  104226      24  104232  104229      25  104238
  104235      24  104241  104235      24  104241  104238      25  104247  104244
      24  104250  104244      24  104250  104247      25  104256  104253      24
  104259  104253      24  104259  104256      25  104265  104262      24  104268
  104262      24  104268  104265      25  104274  104271      24  104277  104271
      24  104277  104274      25  104283  104280      24  104286  104280      24
  104286  104283      25  104292  104289      24  104295  104289      24  104295
  104292      25  104301  104298      24  104304  104298      24  104304  104301
      25  104310  104307      24  104313  104307      24  104313  104310      25
  104319  104316      24  104322  104316      24  104322  104319      25  104328
  104325      24  104331  104325      24  104331  104328      25  104337  104334
      24  104340  104334      24  104340  104337      25  104346  104343      24
  104349  104343      24  104349  104346      25  104355  104352      24  104358
  104352      24  104358  104355      25  104364  104361      24  104367  104361
      24  104367  104364      25  104373  104370      24  104376  104370      24
  104376  104373      25  104382  104379      24  104385  104379      24  104385
  104382      25  104391  104388      24  104394  104388      24  104394  104391
      25  104400  104397      24  104403  104397      24  104403  104400      25
  104409  104406      24  104412  104406      24  104412  104409      25  104418
  104415      24  104421  104415      24  104421  104418      25  104427  104424
      24  104430  104424      24  104430  104427      25  104436  104433      24
  104439  104433      24  104439  104436      25  104445  104442      24  104448
  104442      24  104448  104445      25  104454  104451      24  104457  104451
      24  104457  104454      25  104463  104460      24  104466  104460      24
  104466  104463      25  104472  104469      24  104475  104469      24  104475
  104472      25  104481  104478      24  104484  104478      24  104484  104481
      25  104490  104487      24  104493  104487      24  104493  104490      25
  104499  104496      24  104502  104496      24  104502  104499      25  104508
  104505      24  104511  104505      24  104511  104508      25  104517  104514
      24  104520  104514      24  104520  104517      25  104526  104523      24
  104529  104523      24  104529  104526      25  104535  104532      24  104538
  104532      24  104538  104535      25  104544  104541      24  104547  104541
      24  104547  104544      25  104553  104550      24  104556  104550      24
  104556  104553      25  104562  104559      24  104565  104559      24  104565
  104562      25  104571  104568      24  104574  104568      24  104574  104571
      25  104580  104577      24  104583  104577      24  104583  104580      25
  104589  104586      24  104592  104586      24  104592  104589      25  104598
  104595      24  104601  104595      24  104601  104598      25  104607  104604
      24  104610  104604      24  104610  104607      25  104616  104613      24
  104619  104613      24  104619  104616      25  104625  104622      24  104628
  104622      24  104628  104625      25  104634  104631      24  104637  104631
      24  104637  104634      25  104643  104640      24  104646  104640      24
  104646  104643      25  104652  104649      24  104655  104649      24  104655
  104652      25  104661  104658      24  104664  104658      24  104664  104661
      25  104670  104667      24  104673  104667      24  104673  104670      25
  104679  104676      24  104682  104676      24  104682  104679      25  104688
  104685      24  104691  104685      24  104691  104688      25  104697  104694
      24  104700  104694      24  104700  104697      25  104706  104703      24
  104709  104703      24  104709  104706      25  104715  104712      24  104718
  104712      24  104718  104715      25  104724  104721      24  104727  104721
      24  104727  104724      25  104733  104730      24  104736  104730      24
  104736  104733      25  104742  104739      24  104745  104739      24  104745
  104742      25  104751  104748      24  104754  104748      24  104754  104751
      25  104760  104757      24  104763  104757      24  104763  104760      25
  104769  104766      24  104772  104766      24  104772  104769      25  104778
  104775      24  104781  104775      24  104781  104778      25  104787  104784
      24  104790  104784      24  104790  104787      25  104796  104793      24
  104799  104793      24  104799  104796      25  104805  104802      24  104808
  104802      24  104808  104805      25  104814  104811      24  104817  104811
      24  104817  104814      25  104823  104820      24  104826  104820      24
  104826  104823      25  104832  104829      24  104835  104829      24  104835
  104832      25  104841  104838      24  104844  104838      24  104844  104841
      25  104850  104847      24  104853  104847      24  104853  104850      25
  104859  104856      24  104862  104856      24  104862  104859      25  104868
  104865      24  104871  104865      24  104871  104868      25  104877  104874
      24  104880  104874      24  104880  104877      25  104886  104883      24
  104889  104883      24  104889  104886      25  104895  104892      24  104898
  104892      24  104898  104895      25  104904  104901      24  104907  104901
      24  104907  104904      25  104913  104910      24  104916  104910      24
  104916  104913      25  104922  104919      24  104925  104919      24  104925
  104922      25  104931  104928      24  104934  104928      24  104934  104931
      25  104940  104937      24  104943  104937      24  104943  104940      25
  104949  104946      24  104952  104946      24  104952  104949      25  104958
  104955      24  104961  104955      24  104961  104958      25  104967  104964
      24  104970  104964      24  104970  104967      25  104976  104973      24
  104979  104973      24  104979  104976      25  104985  104982      24  104988
  104982      24  104988  104985      25  104994  104991      24  104997  104991
      24  104997  104994      25  105003  105000      24  105006  105000      24
  105006  105003      25  105012  105009      24  105015  105009      24  105015
  105012      25  105021  105018      24  105024  105018      24  105024  105021
      25  105030  105027      24  105033  105027      24  105033  105030      25
  105039  105036      24  105042  105036      24  105042  105039      25  105048
  105045      24  105051  105045      24  105051  105048      25  105057  105054
      24  105060  105054      24  105060  105057      25  105066  105063      24
  105069  105063      24  105069  105066      25  105075  105072      24  105078
  105072      24  105078  105075      25  105084  105081      24  105087  105081
      24  105087  105084      25  105093  105090      24  105096  105090      24
  105096  105093      25  105102  105099      24  105105  105099      24  105105
  105102      25  105111  105108      24  105114  105108      24  105114  105111
      25  105120  105117      24  105123  105117      24  105123  105120      25
  105129  105126      24  105132  105126      24  105132  105129      25  105138
  105135      24  105141  105135      24  105141  105138      25  105147  105144
      24  105150  105144      24  105150  105147      25  105156  105153      24
  105159  105153      24  105159  105156      25  105165  105162      24  105168
  105162      24  105168  105165      25  105174  105171      24  105177  105171
      24  105177  105174      25  105183  105180      24  105186  105180      24
  105186  105183      25  105192  105189      24  105195  105189      24  105195
  105192      25  105201  105198      24  105204  105198      24  105204  105201
      25  105210  105207      24  105213  105207      24  105213  105210      25
  105219  105216      24  105222  105216      24  105222  105219      25  105228
  105225      24  105231  105225      24  105231  105228      25  105237  105234
      24  105240  105234      24  105240  105237      25  105246  105243      24
  105249  105243      24  105249  105246      25  105255  105252      24  105258
  105252      24  105258  105255      25  105264  105261      24  105267  105261
      24  105267  105264      25  105273  105270      24  105276  105270      24
  105276  105273      25  105282  105279      24  105285  105279      24  105285
  105282      25  105291  105288      24  105294  105288      24  105294  105291
      25  105300  105297      24  105303  105297      24  105303  105300      25
  105309  105306      24  105312  105306      24  105312  105309      25  105318
  105315      24  105321  105315      24  105321  105318      25  105327  105324
      24  105330  105324      24  105330  105327      25  105336  105333      24
  105339  105333      24  105339  105336      25  105345  105342      24  105348
  105342      24  105348  105345      25  105354  105351      24  105357  105351
      24  105357  105354      25  105363  105360      24  105366  105360      24
  105366  105363      25  105372  105369      24  105375  105369      24  105375
  105372      25  105381  105378      24  105384  105378      24  105384  105381
      25  105390  105387      24  105393  105387      24  105393  105390      25
  105399  105396      24  105402  105396      24  105402  105399      25  105408
  105405      24  105411  105405      24  105411  105408      25  105417  105414
      24  105420  105414      24  105420  105417      25  105426  105423      24
  105429  105423      24  105429  105426      25  105435  105432      24  105438
  105432      24  105438  105435      25  105444  105441      24  105447  105441
      24  105447  105444      25  105453  105450      24  105456  105450      24
  105456  105453      25  105462  105459      24  105465  105459      24  105465
  105462      25  105471  105468      24  105474  105468      24  105474  105471
      25  105480  105477      24  105483  105477      24  105483  105480      25
  105489  105486      24  105492  105486      24  105492  105489      25  105498
  105495      24  105501  105495      24  105501  105498      25  105507  105504
      24  105510  105504      24  105510  105507      25  105516  105513      24
  105519  105513      24  105519  105516      25  105525  105522      24  105528
  105522      24  105528  105525      25  105534  105531      24  105537  105531
      24  105537  105534      25  105543  105540      24  105546  105540      24
  105546  105543      25  105552  105549      24  105555  105549      24  105555
  105552      25  105561  105558      24  105564  105558      24  105564  105561
      25  105570  105567      24  105573  105567      24  105573  105570      25
  105579  105576      24  105582  105576      24  105582  105579      25  105588
  105585      24  105591  105585      24  105591  105588      25  105597  105594
      24  105600  105594      24  105600  105597      25  105606  105603      24
  105609  105603      24  105609  105606      25  105615  105612      24  105618
  105612      24  105618  105615      25  105624  105621      24  105627  105621
      24  105627  105624      25  105633  105630      24  105636  105630      24
  105636  105633      25  105642  105639      24  105645  105639      24  105645
  105642      25  105651  105648      24  105654  105648      24  105654  105651
      25  105660  105657      24  105663  105657      24  105663  105660      25
  105669  105666      24  105672  105666      24  105672  105669      25  105678
  105675      24  105681  105675      24  105681  105678      25  105687  105684
      24  105690  105684      24  105690  105687      25  105696  105693      24
  105699  105693      24  105699  105696      25  105705  105702      24  105708
  105702      24  105708  105705      25  105714  105711      24  105717  105711
      24  105717  105714      25  105723  105720      24  105726  105720      24
  105726  105723      25  105732  105729      24  105735  105729      24  105735
  105732      25  105741  105738      24  105744  105738      24  105744  105741
      25  105750  105747      24  105753  105747      24  105753  105750      25
  105759  105756      24  105762  105756      24  105762  105759      25  105768
  105765      24  105771  105765      24  105771  105768      25  105777  105774
      24  105780  105774      24  105780  105777      25  105786  105783      24
  105789  105783      24  105789  105786      25  105795  105792      24  105798
  105792      24  105798  105795      25  105804  105801      24  105807  105801
      24  105807  105804      25  105813  105810      24  105816  105810      24
  105816  105813      25  105822  105819      24  105825  105819      24  105825
  105822      25  105831  105828      24  105834  105828      24  105834  105831
      25  105840  105837      24  105843  105837      24  105843  105840      25
  105849  105846      24  105852  105846      24  105852  105849      25  105858
  105855      24  105861  105855      24  105861  105858      25  105867  105864
      24  105870  105864      24  105870  105867      25  105876  105873      24
  105879  105873      24  105879  105876      25  105885  105882      24  105888
  105882      24  105888  105885      25  105894  105891      24  105897  105891
      24  105897  105894      25  105903  105900      24  105906  105900      24
  105906  105903      25  105912  105909      24  105915  105909      24  105915
  105912      25  105921  105918      24  105924  105918      24  105924  105921
      25  105930  105927      24  105933  105927      24  105933  105930      25
  105939  105936      24  105942  105936      24  105942  105939      25  105948
  105945      24  105951  105945      24  105951  105948      25  105957  105954
      24  105960  105954      24  105960  105957      25  105966  105963      24
  105969  105963      24  105969  105966      25  105975  105972      24  105978
  105972      24  105978  105975      25  105984  105981      24  105987  105981
      24  105987  105984      25  105993  105990      24  105996  105990      24
  105996  105993      25  106002  105999      24  106005  105999      24  106005
  106002      25  106011  106008      24  106014  106008      24  106014  106011
      25  106020  106017      24  106023  106017      24  106023  106020      25
  106029  106026      24  106032  106026      24  106032  106029      25  106038
  106035      24  106041  106035      24  106041  106038      25  106047  106044
      24  106050  106044      24  106050  106047      25  106056  106053      24
  106059  106053      24  106059  106056      25  106065  106062      24  106068
  106062      24  106068  106065      25  106074  106071      24  106077  106071
      24  106077  106074      25  106083  106080      24  106086  106080      24
  106086  106083      25  106092  106089      24  106095  106089      24  106095
  106092      25  106101  106098      24  106104  106098      24  106104  106101
      25  106110  106107      24  106113  106107      24  106113  106110      25
  106119  106116      24  106122  106116      24  106122  106119      25  106128
  106125      24  106131  106125      24  106131  106128      25  106137  106134
      24  106140  106134      24  106140  106137      25  106146  106143      24
  106149  106143      24  106149  106146      25  106155  106152      24  106158
  106152      24  106158  106155      25  106164  106161      24  106167  106161
      24  106167  106164      25  106173  106170      24  106176  106170      24
  106176  106173      25  106182  106179      24  106185  106179      24  106185
  106182      25  106191  106188      24  106194  106188      24  106194  106191
      25  106200  106197      24  106203  106197      24  106203  106200      25
  106209  106206      24  106212  106206      24  106212  106209      25  106218
  106215      24  106221  106215      24  106221  106218      25  106227  106224
      24  106230  106224      24  106230  106227      25  106236  106233      24
  106239  106233      24  106239  106236      25  106245  106242      24  106248
  106242      24  106248  106245      25  106254  106251      24  106257  106251
      24  106257  106254      25  106263  106260      24  106266  106260      24
  106266  106263      25  106272  106269      24  106275  106269      24  106275
  106272      25  106281  106278      24  106284  106278      24  106284  106281
      25  106290  106287      24  106293  106287      24  106293  106290      25
  106299  106296      24  106302  106296      24  106302  106299      25  106308
  106305      24  106311  106305      24  106311  106308      25  106317  106314
      24  106320  106314      24  106320  106317      25  106326  106323      24
  106329  106323      24  106329  106326      25  106335  106332      24  106338
  106332      24  106338  106335      25  106344  106341      24  106347  106341
      24  106347  106344      25  106353  106350      24  106356  106350      24
  106356  106353      25  106362  106359      24  106365  106359      24  106365
  106362      25  106371  106368      24  106374  106368      24  106374  106371
      25  106380  106377      24  106383  106377      24  106383  106380      25
  106389  106386      24  106392  106386      24  106392  106389      25  106398
  106395      24  106401  106395      24  106401  106398      25  106407  106404
      24  106410  106404      24  106410  106407      25  106416  106413      24
  106419  106413      24  106419  106416      25  106425  106422      24  106428
  106422      24  106428  106425      25  106434  106431      24  106437  106431
      24  106437  106434      25  106443  106440      24  106446  106440      24
  106446  106443      25  106452  106449      24  106455  106449      24  106455
  106452      25  106461  106458      24  106464  106458      24  106464  106461
      25  106470  106467      24  106473  106467      24  106473  106470      25
  106479  106476      24  106482  106476      24  106482  106479      25  106488
  106485      24  106491  106485      24  106491  106488      25  106497  106494
      24  106500  106494      24  106500  106497      25  106506  106503      24
  106509  106503      24  106509  106506      25  106515  106512      24  106518
  106512      24  106518  106515      25  106524  106521      24  106527  106521
      24  106527  106524      25  106533  106530      24  106536  106530      24
  106536  106533      25  106542  106539      24  106545  106539      24  106545
  106542      25  106551  106548      24  106554  106548      24  106554  106551
      25  106560  106557      24  106563  106557      24  106563  106560      25
  106569  106566      24  106572  106566      24  106572  106569      25  106578
  106575      24  106581  106575      24  106581  106578      25  106587  106584
      24  106590  106584      24  106590  106587      25  106596  106593      24
  106599  106593      24  106599  106596      25  106605  106602      24  106608
  106602      24  106608  106605      25  106614  106611      24  106617  106611
      24  106617  106614      25  106623  106620      24  106626  106620      24
  106626  106623      25  106632  106629      24  106635  106629      24  106635
  106632      25  106641  106638      24  106644  106638      24  106644  106641
      25  106650  106647      24  106653  106647      24  106653  106650      25
  106659  106656      24  106662  106656      24  106662  106659      25  106668
  106665      24  106671  106665      24  106671  106668      25  106677  106674
      24  106680  106674      24  106680  106677      25  106686  106683      24
  106689  106683      24  106689  106686      25  106695  106692      24  106698
  106692      24  106698  106695      25  106704  106701      24  106707  106701
      24  106707  106704      25  106713  106710      24  106716  106710      24
  106716  106713      25  106722  106719      24  106725  106719      24  106725
  106722      25  106731  106728      24  106734  106728      24  106734  106731
      25  106740  106737      24  106743  106737      24  106743  106740      25
  106749  106746      24  106752  106746      24  106752  106749      25  106758
  106755      24  106761  106755      24  106761  106758      25  106767  106764
      24  106770  106764      24  106770  106767      25  106776  106773      24
  106779  106773      24  106779  106776      25  106785  106782      24  106788
  106782      24  106788  106785      25  106794  106791      24  106797  106791
      24  106797  106794      25  106803  106800      24  106806  106800      24
  106806  106803      25  106812  106809      24  106815  106809      24  106815
  106812      25  106821  106818      24  106824  106818      24  106824  106821
      25  106830  106827      24  106833  106827      24  106833  106830      25
  106839  106836      24  106842  106836      24  106842  106839      25  106848
  106845      24  106851  106845      24  106851  106848      25  106857  106854
      24  106860  106854      24  106860  106857      25  106866  106863      24
  106869  106863      24  106869  106866      25  106875  106872      24  106878
  106872      24  106878  106875      25  106884  106881      24  106887  106881
      24  106887  106884      25  106893  106890      24  106896  106890      24
  106896  106893      25  106902  106899      24  106905  106899      24  106905
  106902      25  106911  106908      24  106914  106908      24  106914  106911
      25  106920  106917      24  106923  106917      24  106923  106920      25
  106929  106926      24  106932  106926      24  106932  106929      25  106938
  106935      24  106941  106935      24  106941  106938      25  106947  106944
      24  106950  106944      24  106950  106947      25  106956  106953      24
  106959  106953      24  106959  106956      25  106965  106962      24  106968
  106962      24  106968  106965      25  106974  106971      24  106977  106971
      24  106977  106974      25  106983  106980      24  106986  106980      24
  106986  106983      25  106992  106989      24  106995  106989      24  106995
  106992      25  107001  106998      24  107004  106998      24  107004  107001
      25  107010  107007      24  107013  107007      24  107013  107010      25
  107019  107016      24  107022  107016      24  107022  107019      25  107028
  107025      24  107031  107025      24  107031  107028      25  107037  107034
      24  107040  107034      24  107040  107037      25  107046  107043      24
  107049  107043      24  107049  107046      25  107055  107052      24  107058
  107052      24  107058  107055      25  107064  107061      24  107067  107061
      24  107067  107064      25  107073  107070      24  107076  107070      24
  107076  107073      25  107082  107079      24  107085  107079      24  107085
  107082      25  107091  107088      24  107094  107088      24  107094  107091
      25  107100  107097      24  107103  107097      24  107103  107100      25
  107109  107106      24  107112  107106      24  107112  107109      25  107118
  107115      24  107121  107115      24  107121  107118      25  107127  107124
      24  107130  107124      24  107130  107127      25  107136  107133      24
  107139  107133      24  107139  107136      25  107145  107142      24  107148
  107142      24  107148  107145      25  107154  107151      24  107157  107151
      24  107157  107154      25  107163  107160      24  107166  107160      24
  107166  107163      25  107172  107169      24  107175  107169      24  107175
  107172      25  107181  107178      24  107184  107178      24  107184  107181
      25  107190  107187      24  107193  107187      24  107193  107190      25
  107199  107196      24  107202  107196      24  107202  107199      25  107208
  107205      24  107211  107205      24  107211  107208      25  107217  107214
      24  107220  107214      24  107220  107217      25  107226  107223      24
  107229  107223      24  107229  107226      25  107235  107232      24  107238
  107232      24  107238  107235      25  107244  107241      24  107247  107241
      24  107247  107244      25  107253  107250      24  107256  107250      24
  107256  107253      25  107262  107259      24  107265  107259      24  107265
  107262      25  107271  107268      24  107274  107268      24  107274  107271
      25  107280  107277      24  107283  107277      24  107283  107280      25
  107289  107286      24  107292  107286      24  107292  107289      25  107298
  107295      24  107301  107295      24  107301  107298      25  107307  107304
      24  107310  107304      24  107310  107307      25  107316  107313      24
  107319  107313      24  107319  107316      25  107325  107322      24  107328
  107322      24  107328  107325      25  107334  107331      24  107337  107331
      24  107337  107334      25  107343  107340      24  107346  107340      24
  107346  107343      25  107352  107349      24  107355  107349      24  107355
  107352      25  107361  107358      24  107364  107358      24  107364  107361
      25  107370  107367      24  107373  107367      24  107373  107370      25
  107379  107376      24  107382  107376      24  107382  107379      25  107388
  107385      24  107391  107385      24  107391  107388      25  107397  107394
      24  107400  107394      24  107400  107397      25  107406  107403      24
  107409  107403      24  107409  107406      25  107415  107412      24  107418
  107412      24  107418  107415      25  107424  107421      24  107427  107421
      24  107427  107424      25  107433  107430      24  107436  107430      24
  107436  107433      25  107442  107439      24  107445  107439      24  107445
  107442      25  107451  107448      24  107454  107448      24  107454  107451
      25  107460  107457      24  107463  107457      24  107463  107460      25
  107469  107466      24  107472  107466      24  107472  107469      25  107478
  107475      24  107481  107475      24  107481  107478      25  107487  107484
      24  107490  107484      24  107490  107487      25  107496  107493      24
  107499  107493      24  107499  107496      25  107505  107502      24  107508
  107502      24  107508  107505      25  107514  107511      24  107517  107511
      24  107517  107514      25  107523  107520      24  107526  107520      24
  107526  107523      25  107532  107529      24  107535  107529      24  107535
  107532      25  107541  107538      24  107544  107538      24  107544  107541
      25  107550  107547      24  107553  107547      24  107553  107550      25
  107559  107556      24  107562  107556      24  107562  107559      25  107568
  107565      24  107571  107565      24  107571  107568      25  107577  107574
      24  107580  107574      24  107580  107577      25  107586  107583      24
  107589  107583      24  107589  107586      25  107595  107592      24  107598
  107592      24  107598  107595      25  107604  107601      24  107607  107601
      24  107607  107604      25  107613  107610      24  107616  107610      24
  107616  107613      25  107622  107619      24  107625  107619      24  107625
  107622      25  107631  107628      24  107634  107628      24  107634  107631
      25  107640  107637      24  107643  107637      24  107643  107640      25
  107649  107646      24  107652  107646      24  107652  107649      25  107658
  107655      24  107661  107655      24  107661  107658      25  107667  107664
      24  107670  107664      24  107670  107667      25  107676  107673      24
  107679  107673      24  107679  107676      25  107685  107682      24  107688
  107682      24  107688  107685      25  107694  107691      24  107697  107691
      24  107697  107694      25  107703  107700      24  107706  107700      24
  107706  107703      25  107712  107709      24  107715  107709      24  107715
  107712      25  107721  107718      24  107724  107718      24  107724  107721
      25  107730  107727      24  107733  107727      24  107733  107730      25
  107739  107736      24  107742  107736      24  107742  107739      25  107748
  107745      24  107751  107745      24  107751  107748      25  107757  107754
      24  107760  107754      24  107760  107757      25  107766  107763      24
  107769  107763      24  107769  107766      25  107775  107772      24  107778
  107772      24  107778  107775      25  107784  107781      24  107787  107781
      24  107787  107784      25  107793  107790      24  107796  107790      24
  107796  107793      25  107802  107799      24  107805  107799      24  107805
  107802      25  107811  107808      24  107814  107808      24  107814  107811
      25  107820  107817      24  107823  107817      24  107823  107820      25
  107829  107826      24  107832  107826      24  107832  107829      25  107838
  107835      24  107841  107835      24  107841  107838      25  107847  107844
      24  107850  107844      24  107850  107847      25  107856  107853      24
  107859  107853      24  107859  107856      25  107865  107862      24  107868
  107862      24  107868  107865      25  107874  107871      24  107877  107871
      24  107877  107874      25  107883  107880      24  107886  107880      24
  107886  107883      25  107892  107889      24  107895  107889      24  107895
  107892      25  107901  107898      24  107904  107898      24  107904  107901
      25  107910  107907      24  107913  107907      24  107913  107910      25
  107919  107916      24  107922  107916      24  107922  107919      25  107928
  107925      24  107931  107925      24  107931  107928      25  107937  107934
      24  107940  107934      24  107940  107937      25  107946  107943      24
  107949  107943      24  107949  107946      25  107955  107952      24  107958
  107952      24  107958  107955      25  107964  107961      24  107967  107961
      24  107967  107964      25  107973  107970      24  107976  107970      24
  107976  107973      25  107982  107979      24  107985  107979      24  107985
  107982      25  107991  107988      24  107994  107988      24  107994  107991
      25  108000  107997      24  108003  107997      24  108003  108000      25
  108009  108006      24  108012  108006      24  108012  108009      25  108018
  108015      24  108021  108015      24  108021  108018      25  108027  108024
      24  108030  108024      24  108030  108027      25  108036  108033      24
  108039  108033      24  108039  108036      25  108045  108042      24  108048
  108042      24  108048  108045      25  108054  108051      24  108057  108051
      24  108057  108054      25  108063  108060      24  108066  108060      24
  108066  108063      25  108072  108069      24  108075  108069      24  108075
  108072      25  108081  108078      24  108084  108078      24  108084  108081
      25  108090  108087      24  108093  108087      24  108093  108090      25
  108099  108096      24  108102  108096      24  108102  108099      25  108108
  108105      24  108111  108105      24  108111  108108      25  108117  108114
      24  108120  108114      24  108120  108117      25  108126  108123      24
  108129  108123      24  108129  108126      25  108135  108132      24  108138
  108132      24  108138  108135      25  108144  108141      24  108147  108141
      24  108147  108144      25  108153  108150      24  108156  108150      24
  108156  108153      25  108162  108159      24  108165  108159      24  108165
  108162      25  108171  108168      24  108174  108168      24  108174  108171
      25  108180  108177      24  108183  108177      24  108183  108180      25
  108189  108186      24  108192  108186      24  108192  108189      25  108198
  108195      24  108201  108195      24  108201  108198      25  108207  108204
      24  108210  108204      24  108210  108207      25  108216  108213      24
  108219  108213      24  108219  108216      25  108225  108222      24  108228
  108222      24  108228  108225      25  108234  108231      24  108237  108231
      24  108237  108234      25  108243  108240      24  108246  108240      24
  108246  108243      25  108252  108249      24  108255  108249      24  108255
  108252      25  108261  108258      24  108264  108258      24  108264  108261
      25  108270  108267      24  108273  108267      24  108273  108270      25
  108279  108276      24  108282  108276      24  108282  108279      25  108288
  108285      24  108291  108285      24  108291  108288      25  108297  108294
      24  108300  108294      24  108300  108297      25  108306  108303      24
  108309  108303      24  108309  108306      25  108315  108312      24  108318
  108312      24  108318  108315      25  108324  108321      24  108327  108321
      24  108327  108324      25  108333  108330      24  108336  108330      24
  108336  108333      25  108342  108339      24  108345  108339      24  108345
  108342      25  108351  108348      24  108354  108348      24  108354  108351
      25  108360  108357      24  108363  108357      24  108363  108360      25
  108369  108366      24  108372  108366      24  108372  108369      25  108378
  108375      24  108381  108375      24  108381  108378      25  108387  108384
      24  108390  108384      24  108390  108387      25  108396  108393      24
  108399  108393      24  108399  108396      25  108405  108402      24  108408
  108402      24  108408  108405      25  108414  108411      24  108417  108411
      24  108417  108414      25  108423  108420      24  108426  108420      24
  108426  108423      25  108432  108429      24  108435  108429      24  108435
  108432      25  108441  108438      24  108444  108438      24  108444  108441
      25  108450  108447      24  108453  108447      24  108453  108450      25
  108459  108456      24  108462  108456      24  108462  108459      25  108468
  108465      24  108471  108465      24  108471  108468      25  108477  108474
      24  108480  108474      24  108480  108477      25  108486  108483      24
  108489  108483      24  108489  108486      25  108495  108492      24  108498
  108492      24  108498  108495      25  108504  108501      24  108507  108501
      24  108507  108504      25  108513  108510      24  108516  108510      24
  108516  108513      25  108522  108519      24  108525  108519      24  108525
  108522      25  108531  108528      24  108534  108528      24  108534  108531
      25  108540  108537      24  108543  108537      24  108543  108540      25
  108549  108546      24  108552  108546      24  108552  108549      25  108558
  108555      24  108561  108555      24  108561  108558      25  108567  108564
      24  108570  108564      24  108570  108567      25  108576  108573      24
  108579  108573      24  108579  108576      25  108585  108582      24  108588
  108582      24  108588  108585      25  108594  108591      24  108597  108591
      24  108597  108594      25  108603  108600      24  108606  108600      24
  108606  108603      25  108612  108609      24  108615  108609      24  108615
  108612      25  108621  108618      24  108624  108618      24  108624  108621
      25  108630  108627      24  108633  108627      24  108633  108630      25
  108639  108636      24  108642  108636      24  108642  108639      25  108648
  108645      24  108651  108645      24  108651  108648      25  108657  108654
      24  108660  108654      24  108660  108657      25  108666  108663      24
  108669  108663      24  108669  108666      25  108675  108672      24  108678
  108672      24  108678  108675      25  108684  108681      24  108687  108681
      24  108687  108684      25  108693  108690      24  108696  108690      24
  108696  108693      25  108702  108699      24  108705  108699      24  108705
  108702      25  108711  108708      24  108714  108708      24  108714  108711
      25  108720  108717      24  108723  108717      24  108723  108720      25
  108729  108726      24  108732  108726      24  108732  108729      25  108738
  108735      24  108741  108735      24  108741  108738      25  108747  108744
      24  108750  108744      24  108750  108747      25  108756  108753      24
  108759  108753      24  108759  108756      25  108765  108762      24  108768
  108762      24  108768  108765      25  108774  108771      24  108777  108771
      24  108777  108774      25  108783  108780      24  108786  108780      24
  108786  108783      25  108792  108789      24  108795  108789      24  108795
  108792      25  108801  108798      24  108804  108798      24  108804  108801
      25  108810  108807      24  108813  108807      24  108813  108810      25
  108819  108816      24  108822  108816      24  108822  108819      25  108828
  108825      24  108831  108825      24  108831  108828      25  108837  108834
      24  108840  108834      24  108840  108837      25  108846  108843      24
  108849  108843      24  108849  108846      25  108855  108852      24  108858
  108852      24  108858  108855      25  108864  108861      24  108867  108861
      24  108867  108864      25  108873  108870      24  108876  108870      24
  108876  108873      25  108882  108879      24  108885  108879      24  108885
  108882      25  108891  108888      24  108894  108888      24  108894  108891
      25  108900  108897      24  108903  108897      24  108903  108900      25
  108909  108906      24  108912  108906      24  108912  108909      25  108918
  108915      24  108921  108915      24  108921  108918      25  108927  108924
      24  108930  108924      24  108930  108927      25  108936  108933      24
  108939  108933      24  108939  108936      25  108945  108942      24  108948
  108942      24  108948  108945      25  108954  108951      24  108957  108951
      24  108957  108954      25  108963  108960      24  108966  108960      24
  108966  108963      25  108972  108969      24  108975  108969      24  108975
  108972      25  108981  108978      24  108984  108978      24  108984  108981
      25  108990  108987      24  108993  108987      24  108993  108990      25
  108999  108996      24  109002  108996      24  109002  108999      25  109008
  109005      24  109011  109005      24  109011  109008      25  109017  109014
      24  109020  109014      24  109020  109017      25  109026  109023      24
  109029  109023      24  109029  109026      25  109035  109032      24  109038
  109032      24  109038  109035      25  109044  109041      24  109047  109041
      24  109047  109044      25  109053  109050      24  109056  109050      24
  109056  109053      25  109062  109059      24  109065  109059      24  109065
  109062      25  109071  109068      24  109074  109068      24  109074  109071
      25  109080  109077      24  109083  109077      24  109083  109080      25
  109089  109086      24  109092  109086      24  109092  109089      25  109098
  109095      24  109101  109095      24  109101  109098      25  109107  109104
      24  109110  109104      24  109110  109107      25  109116  109113      24
  109119  109113      24  109119  109116      25  109125  109122      24  109128
  109122      24  109128  109125      25  109134  109131      24  109137  109131
      24  109137  109134      25  109143  109140      24  109146  109140      24
  109146  109143      25  109152  109149      24  109155  109149      24  109155
  109152      25  109161  109158      24  109164  109158      24  109164  109161
      25  109170  109167      24  109173  109167      24  109173  109170      25
  109179  109176      24  109182  109176      24  109182  109179      25  109188
  109185      24  109191  109185      24  109191  109188      25  109197  109194
      24  109200  109194      24  109200  109197      25  109206  109203      24
  109209  109203      24  109209  109206      25  109215  109212      24  109218
  109212      24  109218  109215      25  109224  109221      24  109227  109221
      24  109227  109224      25  109233  109230      24  109236  109230      24
  109236  109233      25  109242  109239      24  109245  109239      24  109245
  109242      25  109251  109248      24  109254  109248      24  109254  109251
      25  109260  109257      24  109263  109257      24  109263  109260      25
  109269  109266      24  109272  109266      24  109272  109269      25  109278
  109275      24  109281  109275      24  109281  109278      25  109287  109284
      24  109290  109284      24  109290  109287      25  109296  109293      24
  109299  109293      24  109299  109296      25  109305  109302      24  109308
  109302      24  109308  109305      25  109314  109311      24  109317  109311
      24  109317  109314      25  109323  109320      24  109326  109320      24
  109326  109323      25  109332  109329      24  109335  109329      24  109335
  109332      25  109341  109338      24  109344  109338      24  109344  109341
      25  109350  109347      24  109353  109347      24  109353  109350      25
  109359  109356      24  109362  109356      24  109362  109359      25  109368
  109365      24  109371  109365      24  109371  109368      25  109377  109374
      24  109380  109374      24  109380  109377      25  109386  109383      24
  109389  109383      24  109389  109386      25  109395  109392      24  109398
  109392      24  109398  109395      25  109404  109401      24  109407  109401
      24  109407  109404      25  109413  109410      24  109416  109410      24
  109416  109413      25  109422  109419      24  109425  109419      24  109425
  109422      25  109431  109428      24  109434  109428      24  109434  109431
      25  109440  109437      24  109443  109437      24  109443  109440      25
  109449  109446      24  109452  109446      24  109452  109449      25  109458
  109455      24  109461  109455      24  109461  109458      25  109467  109464
      24  109470  109464      24  109470  109467      25  109476  109473      24
  109479  109473      24  109479  109476      25  109485  109482      24  109488
  109482      24  109488  109485      25  109494  109491      24  109497  109491
      24  109497  109494      25  109503  109500      24  109506  109500      24
  109506  109503      25  109512  109509      24  109515  109509      24  109515
  109512      25  109521  109518      24  109524  109518      24  109524  109521
      25  109530  109527      24  109533  109527      24  109533  109530      25
  109539  109536      24  109542  109536      24  109542  109539      25  109548
  109545      24  109551  109545      24  109551  109548      25  109557  109554
      24  109560  109554      24  109560  109557      25  109566  109563      24
  109569  109563      24  109569  109566      25  109575  109572      24  109578
  109572      24  109578  109575      25  109584  109581      24  109587  109581
      24  109587  109584      25  109593  109590      24  109596  109590      24
  109596  109593      25  109602  109599      24  109605  109599      24  109605
  109602      25  109611  109608      24  109614  109608      24  109614  109611
      25  109620  109617      24  109623  109617      24  109623  109620      25
  109629  109626      24  109632  109626      24  109632  109629      25  109638
  109635      24  109641  109635      24  109641  109638      25  109647  109644
      24  109650  109644      24  109650  109647      25  109656  109653      24
  109659  109653      24  109659  109656      25  109665  109662      24  109668
  109662      24  109668  109665      25  109674  109671      24  109677  109671
      24  109677  109674      25  109683  109680      24  109686  109680      24
  109686  109683      25  109692  109689      24  109695  109689      24  109695
  109692      25  109701  109698      24  109704  109698      24  109704  109701
      25  109710  109707      24  109713  109707      24  109713  109710      25
  109719  109716      24  109722  109716      24  109722  109719      25  109728
  109725      24  109731  109725      24  109731  109728      25  109737  109734
      24  109740  109734      24  109740  109737      25  109746  109743      24
  109749  109743      24  109749  109746      25  109755  109752      24  109758
  109752      24  109758  109755      25  109764  109761      24  109767  109761
      24  109767  109764      25  109773  109770      24  109776  109770      24
  109776  109773      25  109782  109779      24  109785  109779      24  109785
  109782      25  109791  109788      24  109794  109788      24  109794  109791
      25  109800  109797      24  109803  109797      24  109803  109800      25
  109809  109806      24  109812  109806      24  109812  109809      25  109818
  109815      24  109821  109815      24  109821  109818      25  109827  109824
      24  109830  109824      24  109830  109827      25  109836  109833      24
  109839  109833      24  109839  109836      25  109845  109842      24  109848
  109842      24  109848  109845      25  109854  109851      24  109857  109851
      24  109857  109854      25  109863  109860      24  109866  109860      24
  109866  109863      25  109872  109869      24  109875  109869      24  109875
  109872      25  109881  109878      24  109884  109878      24  109884  109881
      25  109890  109887      24  109893  109887      24  109893  109890      25
  109899  109896      24  109902  109896      24  109902  109899      25  109908
  109905      24  109911  109905      24  109911  109908      25  109917  109914
      24  109920  109914      24  109920  109917      25  109926  109923      24
  109929  109923      24  109929  109926      25  109935  109932      24  109938
  109932      24  109938  109935      25  109944  109941      24  109947  109941
      24  109947  109944      25  109953  109950      24  109956  109950      24
  109956  109953      25  109962  109959      24  109965  109959      24  109965
  109962      25  109971  109968      24  109974  109968      24  109974  109971
      25  109980  109977      24  109983  109977      24  109983  109980      25
  109989  109986      24  109992  109986      24  109992  109989      25  109998
  109995      24  110001  109995      24  110001  109998      25  110007  110004
      24  110010  110004      24  110010  110007      25  110016  110013      24
  110019  110013      24  110019  110016      25  110025  110022      24  110028
  110022      24  110028  110025      25  110034  110031      24  110037  110031
      24  110037  110034      25  110043  110040      24  110046  110040      24
  110046  110043      25  110052  110049      24  110055  110049      24  110055
  110052      25  110061  110058      24  110064  110058      24  110064  110061
      25  110070  110067      24  110073  110067      24  110073  110070      25
  110079  110076      24  110082  110076      24  110082  110079      25  110088
  110085      24  110091  110085      24  110091  110088      25  110097  110094
      24  110100  110094      24  110100  110097      25  110106  110103      24
  110109  110103      24  110109  110106      25  110115  110112      24  110118
  110112      24  110118  110115      25  110124  110121      24  110127  110121
      24  110127  110124      25  110133  110130      24  110136  110130      24
  110136  110133      25  110142  110139      24  110145  110139      24  110145
  110142      25  110151  110148      24  110154  110148      24  110154  110151
      25  110160  110157      24  110163  110157      24  110163  110160      25
  110169  110166      24  110172  110166      24  110172  110169      25  110178
  110175      24  110181  110175      24  110181  110178      25  110187  110184
      24  110190  110184      24  110190  110187      25  110196  110193      24
  110199  110193      24  110199  110196      25  110205  110202      24  110208
  110202      24  110208  110205      25  110214  110211      24  110217  110211
      24  110217  110214      25  110223  110220      24  110226  110220      24
  110226  110223      25  110232  110229      24  110235  110229      24  110235
  110232      25  110241  110238      24  110244  110238      24  110244  110241
      25  110250  110247      24  110253  110247      24  110253  110250      25
  110259  110256      24  110262  110256      24  110262  110259      25  110268
  110265      24  110271  110265      24  110271  110268      25  110277  110274
      24  110280  110274      24  110280  110277      25  110286  110283      24
  110289  110283      24  110289  110286      25  110295  110292      24  110298
  110292      24  110298  110295      25  110304  110301      24  110307  110301
      24  110307  110304      25  110313  110310      24  110316  110310      24
  110316  110313      25  110322  110319      24  110325  110319      24  110325
  110322      25  110331  110328      24  110334  110328      24  110334  110331
      25  110340  110337      24  110343  110337      24  110343  110340      25
  110349  110346      24  110352  110346      24  110352  110349      25  110358
  110355      24  110361  110355      24  110361  110358      25  110367  110364
      24  110370  110364      24  110370  110367      25  110376  110373      24
  110379  110373      24  110379  110376      25  110385  110382      24  110388
  110382      24  110388  110385      25  110394  110391      24  110397  110391
      24  110397  110394      25  110403  110400      24  110406  110400      24
  110406  110403      25  110412  110409      24  110415  110409      24  110415
  110412      25  110421  110418      24  110424  110418      24  110424  110421
      25  110430  110427      24  110433  110427      24  110433  110430      25
  110439  110436      24  110442  110436      24  110442  110439      25  110448
  110445      24  110451  110445      24  110451  110448      25  110457  110454
      24  110460  110454      24  110460  110457      25  110466  110463      24
  110469  110463      24  110469  110466      25  110475  110472      24  110478
  110472      24  110478  110475      25  110484  110481      24  110487  110481
      24  110487  110484      25  110493  110490      24  110496  110490      24
  110496  110493      25  110502  110499      24  110505  110499      24  110505
  110502      25  110511  110508      24  110514  110508      24  110514  110511
      25  110520  110517      24  110523  110517      24  110523  110520      25
  110529  110526      24  110532  110526      24  110532  110529      25  110538
  110535      24  110541  110535      24  110541  110538      25  110547  110544
      24  110550  110544      24  110550  110547      25  110556  110553      24
  110559  110553      24  110559  110556      25  110565  110562      24  110568
  110562      24  110568  110565      25  110574  110571      24  110577  110571
      24  110577  110574      25  110583  110580      24  110586  110580      24
  110586  110583      25  110592  110589      24  110595  110589      24  110595
  110592      25  110601  110598      24  110604  110598      24  110604  110601
      25  110610  110607      24  110613  110607      24  110613  110610      25
  110619  110616      24  110622  110616      24  110622  110619      25  110628
  110625      24  110631  110625      24  110631  110628      25  110637  110634
      24  110640  110634      24  110640  110637      25  110646  110643      24
  110649  110643      24  110649  110646      25  110655  110652      24  110658
  110652      24  110658  110655      25  110664  110661      24  110667  110661
      24  110667  110664      25  110673  110670      24  110676  110670      24
  110676  110673      25  110682  110679      24  110685  110679      24  110685
  110682      25  110691  110688      24  110694  110688      24  110694  110691
      25  110700  110697      24  110703  110697      24  110703  110700      25
  110709  110706      24  110712  110706      24  110712  110709      25  110718
  110715      24  110721  110715      24  110721  110718      25  110727  110724
      24  110730  110724      24  110730  110727      25  110736  110733      24
  110739  110733      24  110739  110736      25  110745  110742      24  110748
  110742      24  110748  110745      25  110754  110751      24  110757  110751
      24  110757  110754      25  110763  110760      24  110766  110760      24
  110766  110763      25  110772  110769      24  110775  110769      24  110775
  110772      25  110781  110778      24  110784  110778      24  110784  110781
      25  110790  110787      24  110793  110787      24  110793  110790      25
  110799  110796      24  110802  110796      24  110802  110799      25  110808
  110805      24  110811  110805      24  110811  110808      25  110817  110814
      24  110820  110814      24  110820  110817      25  110826  110823      24
  110829  110823      24  110829  110826      25  110835  110832      24  110838
  110832      24  110838  110835      25  110844  110841      24  110847  110841
      24  110847  110844      25  110853  110850      24  110856  110850      24
  110856  110853      25  110862  110859      24  110865  110859      24  110865
  110862      25  110871  110868      24  110874  110868      24  110874  110871
      25  110880  110877      24  110883  110877      24  110883  110880      25
  110889  110886      24  110892  110886      24  110892  110889      25  110898
  110895      24  110901  110895      24  110901  110898      25  110907  110904
      24  110910  110904      24  110910  110907      25  110916  110913      24
  110919  110913      24  110919  110916      25  110925  110922      24  110928
  110922      24  110928  110925      25  110934  110931      24  110937  110931
      24  110937  110934      25  110943  110940      24  110946  110940      24
  110946  110943      25  110952  110949      24  110955  110949      24  110955
  110952      25  110961  110958      24  110964  110958      24  110964  110961
      25  110970  110967      24  110973  110967      24  110973  110970      25
  110979  110976      24  110982  110976      24  110982  110979      25  110988
  110985      24  110991  110985      24  110991  110988      25  110997  110994
      24  111000  110994      24  111000  110997      25  111006  111003      24
  111009  111003      24  111009  111006      25  111015  111012      24  111018
  111012      24  111018  111015      25  111024  111021      24  111027  111021
      24  111027  111024      25  111033  111030      24  111036  111030      24
  111036  111033      25  111042  111039      24  111045  111039      24  111045
  111042      25  111051  111048      24  111054  111048      24  111054  111051
      25  111060  111057      24  111063  111057      24  111063  111060      25
  111069  111066      24  111072  111066      24  111072  111069      25  111078
  111075      24  111081  111075      24  111081  111078      25  111087  111084
      24  111090  111084      24  111090  111087      25  111096  111093      24
  111099  111093      24  111099  111096      25  111105  111102      24  111108
  111102      24  111108  111105      25  111114  111111      24  111117  111111
      24  111117  111114      25  111123  111120      24  111126  111120      24
  111126  111123      25  111132  111129      24  111135  111129      24  111135
  111132      25  111141  111138      24  111144  111138      24  111144  111141
      25  111150  111147      24  111153  111147      24  111153  111150      25
  111159  111156      24  111162  111156      24  111162  111159      25  111168
  111165      24  111171  111165      24  111171  111168      25  111177  111174
      24  111180  111174      24  111180  111177      25  111186  111183      24
  111189  111183      24  111189  111186      25  111195  111192      24  111198
  111192      24  111198  111195      25  111204  111201      24  111207  111201
      24  111207  111204      25  111213  111210      24  111216  111210      24
  111216  111213      25  111222  111219      24  111225  111219      24  111225
  111222      25  111231  111228      24  111234  111228      24  111234  111231
      25  111240  111237      24  111243  111237      24  111243  111240      25
  111249  111246      24  111252  111246      24  111252  111249      25  111258
  111255      24  111261  111255      24  111261  111258      25  111267  111264
      24  111270  111264      24  111270  111267      25  111276  111273      24
  111279  111273      24  111279  111276      25  111285  111282      24  111288
  111282      24  111288  111285      25  111294  111291      24  111297  111291
      24  111297  111294      25  111303  111300      24  111306  111300      24
  111306  111303      25  111312  111309      24  111315  111309      24  111315
  111312      25  111321  111318      24  111324  111318      24  111324  111321
      25  111330  111327      24  111333  111327      24  111333  111330      25
  111339  111336      24  111342  111336      24  111342  111339      25  111348
  111345      24  111351  111345      24  111351  111348      25  111357  111354
      24  111360  111354      24  111360  111357      25  111366  111363      24
  111369  111363      24  111369  111366      25  111375  111372      24  111378
  111372      24  111378  111375      25  111384  111381      24  111387  111381
      24  111387  111384      25  111393  111390      24  111396  111390      24
  111396  111393      25  111402  111399      24  111405  111399      24  111405
  111402      25  111411  111408      24  111414  111408      24  111414  111411
      25  111420  111417      24  111423  111417      24  111423  111420      25
  111429  111426      24  111432  111426      24  111432  111429      25  111438
  111435      24  111441  111435      24  111441  111438      25  111447  111444
      24  111450  111444      24  111450  111447      25  111456  111453      24
  111459  111453      24  111459  111456      25  111465  111462      24  111468
  111462      24  111468  111465      25  111474  111471      24  111477  111471
      24  111477  111474      25  111483  111480      24  111486  111480      24
  111486  111483      25  111492  111489      24  111495  111489      24  111495
  111492      25  111501  111498      24  111504  111498      24  111504  111501
      25  111510  111507      24  111513  111507      24  111513  111510      25
  111519  111516      24  111522  111516      24  111522  111519      25  111528
  111525      24  111531  111525      24  111531  111528      25  111537  111534
      24  111540  111534      24  111540  111537      25  111546  111543      24
  111549  111543      24  111549  111546      25  111555  111552      24  111558
  111552      24  111558  111555      25  111564  111561      24  111567  111561
      24  111567  111564      25  111573  111570      24  111576  111570      24
  111576  111573      25  111582  111579      24  111585  111579      24  111585
  111582      25  111591  111588      24  111594  111588      24  111594  111591
      25  111600  111597      24  111603  111597      24  111603  111600      25
  111609  111606      24  111612  111606      24  111612  111609      25  111618
  111615      24  111621  111615      24  111621  111618      25  111627  111624
      24  111630  111624      24  111630  111627      25  111636  111633      24
  111639  111633      24  111639  111636      25  111645  111642      24  111648
  111642      24  111648  111645      25  111654  111651      24  111657  111651
      24  111657  111654      25  111663  111660      24  111666  111660      24
  111666  111663      25  111672  111669      24  111675  111669      24  111675
  111672      25  111681  111678      24  111684  111678      24  111684  111681
      25  111690  111687      24  111693  111687      24  111693  111690      25
  111699  111696      24  111702  111696      24  111702  111699      25  111708
  111705      24  111711  111705      24  111711  111708      25  111717  111714
      24  111720  111714      24  111720  111717      25  111726  111723      24
  111729  111723      24  111729  111726      25  111735  111732      24  111738
  111732      24  111738  111735      25  111744  111741      24  111747  111741
      24  111747  111744      25  111753  111750      24  111756  111750      24
  111756  111753      25  111762  111759      24  111765  111759      24  111765
  111762      25  111771  111768      24  111774  111768      24  111774  111771
      25  111780  111777      24  111783  111777      24  111783  111780      25
  111789  111786      24  111792  111786      24  111792  111789      25  111798
  111795      24  111801  111795      24  111801  111798      25  111807  111804
      24  111810  111804      24  111810  111807      25  111816  111813      24
  111819  111813      24  111819  111816      25  111825  111822      24  111828
  111822      24  111828  111825      25  111834  111831      24  111837  111831
      24  111837  111834      25  111843  111840      24  111846  111840      24
  111846  111843      25  111852  111849      24  111855  111849      24  111855
  111852      25  111861  111858      24  111864  111858      24  111864  111861
      25  111870  111867      24  111873  111867      24  111873  111870      25
  111879  111876      24  111882  111876      24  111882  111879      25  111888
  111885      24  111891  111885      24  111891  111888      25  111897  111894
      24  111900  111894      24  111900  111897      25  111906  111903      24
  111909  111903      24  111909  111906      25  111915  111912      24  111918
  111912      24  111918  111915      25  111924  111921      24  111927  111921
      24  111927  111924      25  111933  111930      24  111936  111930      24
  111936  111933      25  111942  111939      24  111945  111939      24  111945
  111942      25  111951  111948      24  111954  111948      24  111954  111951
      25  111960  111957      24  111963  111957      24  111963  111960      25
  111969  111966      24  111972  111966      24  111972  111969      25  111978
  111975      24  111981  111975      24  111981  111978      25  111987  111984
      24  111990  111984      24  111990  111987      25  111996  111993      24
  111999  111993      24  111999  111996      25  112005  112002      24  112008
  112002      24  112008  112005      25  112014  112011      24  112017  112011
      24  112017  112014      25  112023  112020      24  112026  112020      24
  112026  112023      25  112032  112029      24  112035  112029      24  112035
  112032      25  112041  112038      24  112044  112038      24  112044  112041
      25  112050  112047      24  112053  112047      24  112053  112050      25
  112059  112056      24  112062  112056      24  112062  112059      25  112068
  112065      24  112071  112065      24  112071  112068      25  112077  112074
      24  112080  112074      24  112080  112077      25  112086  112083      24
  112089  112083      24  112089  112086      25  112095  112092      24  112098
  112092      24  112098  112095      25  112104  112101      24  112107  112101
      24  112107  112104      25  112113  112110      24  112116  112110      24
  112116  112113      25  112122  112119      24  112125  112119      24  112125
  112122      25  112131  112128      24  112134  112128      24  112134  112131
      25  112140  112137      24  112143  112137      24  112143  112140      25
  112149  112146      24  112152  112146      24  112152  112149      25  112158
  112155      24  112161  112155      24  112161  112158      25  112167  112164
      24  112170  112164      24  112170  112167      25  112176  112173      24
  112179  112173      24  112179  112176      25  112185  112182      24  112188
  112182      24  112188  112185      25  112194  112191      24  112197  112191
      24  112197  112194      25  112203  112200      24  112206  112200      24
  112206  112203      25  112212  112209      24  112215  112209      24  112215
  112212      25  112221  112218      24  112224  112218      24  112224  112221
      25  112230  112227      24  112233  112227      24  112233  112230      25
  112239  112236      24  112242  112236      24  112242  112239      25  112248
  112245      24  112251  112245      24  112251  112248      25  112257  112254
      24  112260  112254      24  112260  112257      25  112266  112263      24
  112269  112263      24  112269  112266      25  112275  112272      24  112278
  112272      24  112278  112275      25  112284  112281      24  112287  112281
      24  112287  112284      25  112293  112290      24  112296  112290      24
  112296  112293      25  112302  112299      24  112305  112299      24  112305
  112302      25  112311  112308      24  112314  112308      24  112314  112311
      25  112320  112317      24  112323  112317      24  112323  112320      25
  112329  112326      24  112332  112326      24  112332  112329      25  112338
  112335      24  112341  112335      24  112341  112338      25  112347  112344
      24  112350  112344      24  112350  112347      25  112356  112353      24
  112359  112353      24  112359  112356      25  112365  112362      24  112368
  112362      24  112368  112365      25  112374  112371      24  112377  112371
      24  112377  112374      25  112383  112380      24  112386  112380      24
  112386  112383      25  112392  112389      24  112395  112389      24  112395
  112392      25  112401  112398      24  112404  112398      24  112404  112401
      25  112410  112407      24  112413  112407      24  112413  112410      25
  112419  112416      24  112422  112416      24  112422  112419      25  112428
  112425      24  112431  112425      24  112431  112428      25  112437  112434
      24  112440  112434      24  112440  112437      25  112446  112443      24
  112449  112443      24  112449  112446      25  112455  112452      24  112458
  112452      24  112458  112455      25  112464  112461      24  112467  112461
      24  112467  112464      25  112473  112470      24  112476  112470      24
  112476  112473      25  112482  112479      24  112485  112479      24  112485
  112482      25  112491  112488      24  112494  112488      24  112494  112491
      25  112500  112497      24  112503  112497      24  112503  112500      25
  112509  112506      24  112512  112506      24  112512  112509      25  112518
  112515      24  112521  112515      24  112521  112518      25  112527  112524
      24  112530  112524      24  112530  112527      25  112536  112533      24
  112539  112533      24  112539  112536      25  112545  112542      24  112548
  112542      24  112548  112545      25  112554  112551      24  112557  112551
      24  112557  112554      25  112563  112560      24  112566  112560      24
  112566  112563      25  112572  112569      24  112575  112569      24  112575
  112572      25  112581  112578      24  112584  112578      24  112584  112581
      25  112590  112587      24  112593  112587      24  112593  112590      25
  112599  112596      24  112602  112596      24  112602  112599      25  112608
  112605      24  112611  112605      24  112611  112608      25  112617  112614
      24  112620  112614      24  112620  112617      25  112626  112623      24
  112629  112623      24  112629  112626      25  112635  112632      24  112638
  112632      24  112638  112635      25  112644  112641      24  112647  112641
      24  112647  112644      25  112653  112650      24  112656  112650      24
  112656  112653      25  112662  112659      24  112665  112659      24  112665
  112662      25  112671  112668      24  112674  112668      24  112674  112671
      25  112680  112677      24  112683  112677      24  112683  112680      25
  112689  112686      24  112692  112686      24  112692  112689      25  112698
  112695      24  112701  112695      24  112701  112698      25  112707  112704
      24  112710  112704      24  112710  112707      25  112716  112713      24
  112719  112713      24  112719  112716      25  112725  112722      24  112728
  112722      24  112728  112725      25  112734  112731      24  112737  112731
      24  112737  112734      25  112743  112740      24  112746  112740      24
  112746  112743      25  112752  112749      24  112755  112749      24  112755
  112752      25  112761  112758      24  112764  112758      24  112764  112761
      25  112770  112767      24  112773  112767      24  112773  112770      25
  112779  112776      24  112782  112776      24  112782  112779      25  112788
  112785      24  112791  112785      24  112791  112788      25  112797  112794
      24  112800  112794      24  112800  112797      25  112806  112803      24
  112809  112803      24  112809  112806      25  112815  112812      24  112818
  112812      24  112818  112815      25  112824  112821      24  112827  112821
      24  112827  112824      25  112833  112830      24  112836  112830      24
  112836  112833      25  112842  112839      24  112845  112839      24  112845
  112842      25  112851  112848      24  112854  112848      24  112854  112851
      25  112860  112857      24  112863  112857      24  112863  112860      25
  112869  112866      24  112872  112866      24  112872  112869      25  112878
  112875      24  112881  112875      24  112881  112878      25  112887  112884
      24  112890  112884      24  112890  112887      25  112896  112893      24
  112899  112893      24  112899  112896      25  112905  112902      24  112908
  112902      24  112908  112905      25  112914  112911      24  112917  112911
      24  112917  112914      25  112923  112920      24  112926  112920      24
  112926  112923      25  112932  112929      24  112935  112929      24  112935
  112932      25  112941  112938      24  112944  112938      24  112944  112941
      25  112950  112947      24  112953  112947      24  112953  112950      25
  112959  112956      24  112962  112956      24  112962  112959      25  112968
  112965      24  112971  112965      24  112971  112968      25  112977  112974
      24  112980  112974      24  112980  112977      25  112986  112983      24
  112989  112983      24  112989  112986      25  112995  112992      24  112998
  112992      24  112998  112995      25  113004  113001      24  113007  113001
      24  113007  113004      25  113013  113010      24  113016  113010      24
  113016  113013      25  113022  113019      24  113025  113019      24  113025
  113022      25  113031  113028      24  113034  113028      24  113034  113031
      25  113040  113037      24  113043  113037      24  113043  113040      25
  113049  113046      24  113052  113046      24  113052  113049      25  113058
  113055      24  113061  113055      24  113061  113058      25  113067  113064
      24  113070  113064      24  113070  113067      25  113076  113073      24
  113079  113073      24  113079  113076      25  113085  113082      24  113088
  113082      24  113088  113085      25  113094  113091      24  113097  113091
      24  113097  113094      25  113103  113100      24  113106  113100      24
  113106  113103      25  113112  113109      24  113115  113109      24  113115
  113112      25  113121  113118      24  113124  113118      24  113124  113121
      25  113130  113127      24  113133  113127      24  113133  113130      25
  113139  113136      24  113142  113136      24  113142  113139      25  113148
  113145      24  113151  113145      24  113151  113148      25  113157  113154
      24  113160  113154      24  113160  113157      25  113166  113163      24
  113169  113163      24  113169  113166      25  113175  113172      24  113178
  113172      24  113178  113175      25  113184  113181      24  113187  113181
      24  113187  113184      25  113193  113190      24  113196  113190      24
  113196  113193      25  113202  113199      24  113205  113199      24  113205
  113202      25  113211  113208      24  113214  113208      24  113214  113211
      25  113220  113217      24  113223  113217      24  113223  113220      25
  113229  113226      24  113232  113226      24  113232  113229      25  113238
  113235      24  113241  113235      24  113241  113238      25  113247  113244
      24  113250  113244      24  113250  113247      25  113256  113253      24
  113259  113253      24  113259  113256      25  113265  113262      24  113268
  113262      24  113268  113265      25  113274  113271      24  113277  113271
      24  113277  113274      25  113283  113280      24  113286  113280      24
  113286  113283      25  113292  113289      24  113295  113289      24  113295
  113292      25  113301  113298      24  113304  113298      24  113304  113301
      25  113310  113307      24  113313  113307      24  113313  113310      25
  113319  113316      24  113322  113316      24  113322  113319      25  113328
  113325      24  113331  113325      24  113331  113328      25  113337  113334
      24  113340  113334      24  113340  113337      25  113346  113343      24
  113349  113343      24  113349  113346      25  113355  113352      24  113358
  113352      24  113358  113355      25  113364  113361      24  113367  113361
      24  113367  113364      25  113373  113370      24  113376  113370      24
  113376  113373      25  113382  113379      24  113385  113379      24  113385
  113382      25  113391  113388      24  113394  113388      24  113394  113391
      25  113400  113397      24  113403  113397      24  113403  113400      25
  113409  113406      24  113412  113406      24  113412  113409      25  113418
  113415      24  113421  113415      24  113421  113418      25  113427  113424
      24  113430  113424      24  113430  113427      25  113436  113433      24
  113439  113433      24  113439  113436      25  113445  113442      24  113448
  113442      24  113448  113445      25  113454  113451      24  113457  113451
      24  113457  113454      25  113463  113460      24  113466  113460      24
  113466  113463      25  113472  113469      24  113475  113469      24  113475
  113472      25  113481  113478      24  113484  113478      24  113484  113481
      25  113490  113487      24  113493  113487      24  113493  113490      25
  113499  113496      24  113502  113496      24  113502  113499      25  113508
  113505      24  113511  113505      24  113511  113508      25  113517  113514
      24  113520  113514      24  113520  113517      25  113526  113523      24
  113529  113523      24  113529  113526      25  113535  113532      24  113538
  113532      24  113538  113535      25  113544  113541      24  113547  113541
      24  113547  113544      25  113553  113550      24  113556  113550      24
  113556  113553      25  113562  113559      24  113565  113559      24  113565
  113562      25  113571  113568      24  113574  113568      24  113574  113571
      25  113580  113577      24  113583  113577      24  113583  113580      25
  113589  113586      24  113592  113586      24  113592  113589      25  113598
  113595      24  113601  113595      24  113601  113598      25  113607  113604
      24  113610  113604      24  113610  113607      25  113616  113613      24
  113619  113613      24  113619  113616      25  113625  113622      24  113628
  113622      24  113628  113625      25  113634  113631      24  113637  113631
      24  113637  113634      25  113643  113640      24  113646  113640      24
  113646  113643      25  113652  113649      24  113655  113649      24  113655
  113652      25  113661  113658      24  113664  113658      24  113664  113661
      25  113670  113667      24  113673  113667      24  113673  113670      25
  113679  113676      24  113682  113676      24  113682  113679      25  113688
  113685      24  113691  113685      24  113691  113688      25  113697  113694
      24  113700  113694      24  113700  113697      25  113706  113703      24
  113709  113703      24  113709  113706      25  113715  113712      24  113718
  113712      24  113718  113715      25  113724  113721      24  113727  113721
      24  113727  113724      25  113733  113730      24  113736  113730      24
  113736  113733      25  113742  113739      24  113745  113739      24  113745
  113742      25  113751  113748      24  113754  113748      24  113754  113751
      25  113760  113757      24  113763  113757      24  113763  113760      25
  113769  113766      24  113772  113766      24  113772  113769      25  113778
  113775      24  113781  113775      24  113781  113778      25  113787  113784
      24  113790  113784      24  113790  113787      25  113796  113793      24
  113799  113793      24  113799  113796      25  113805  113802      24  113808
  113802      24  113808  113805      25  113814  113811      24  113817  113811
      24  113817  113814      25  113823  113820      24  113826  113820      24
  113826  113823      25  113832  113829      24  113835  113829      24  113835
  113832      25  113841  113838      24  113844  113838      24  113844  113841
      25  113850  113847      24  113853  113847      24  113853  113850      25
  113859  113856      24  113862  113856      24  113862  113859      25  113868
  113865      24  113871  113865      24  113871  113868      25  113877  113874
      24  113880  113874      24  113880  113877      25  113886  113883      24
  113889  113883      24  113889  113886      25  113895  113892      24  113898
  113892      24  113898  113895      25  113904  113901      24  113907  113901
      24  113907  113904      25  113913  113910      24  113916  113910      24
  113916  113913      25  113922  113919      24  113925  113919      24  113925
  113922      25  113931  113928      24  113934  113928      24  113934  113931
      25  113940  113937      24  113943  113937      24  113943  113940      25
  113949  113946      24  113952  113946      24  113952  113949      25  113958
  113955      24  113961  113955      24  113961  113958      25  113967  113964
      24  113970  113964      24  113970  113967      25  113976  113973      24
  113979  113973      24  113979  113976      25  113985  113982      24  113988
  113982      24  113988  113985      25  113994  113991      24  113997  113991
      24  113997  113994      25  114003  114000      24  114006  114000      24
  114006  114003      25  114012  114009      24  114015  114009      24  114015
  114012      25  114021  114018      24  114024  114018      24  114024  114021
      25  114030  114027      24  114033  114027      24  114033  114030      25
  114039  114036      24  114042  114036      24  114042  114039      25  114048
  114045      24  114051  114045      24  114051  114048      25  114057  114054
      24  114060  114054      24  114060  114057      25  114066  114063      24
  114069  114063      24  114069  114066      25  114075  114072      24  114078
  114072      24  114078  114075      25  114084  114081      24  114087  114081
      24  114087  114084      25  114093  114090      24  114096  114090      24
  114096  114093      25  114102  114099      24  114105  114099      24  114105
  114102      25  114111  114108      24  114114  114108      24  114114  114111
      25  114120  114117      24  114123  114117      24  114123  114120      25
  114129  114126      24  114132  114126      24  114132  114129      25  114138
  114135      24  114141  114135      24  114141  114138      25  114147  114144
      24  114150  114144      24  114150  114147      25  114156  114153      24
  114159  114153      24  114159  114156      25  114165  114162      24  114168
  114162      24  114168  114165      25  114174  114171      24  114177  114171
      24  114177  114174      25  114183  114180      24  114186  114180      24
  114186  114183      25  114192  114189      24  114195  114189      24  114195
  114192      25  114201  114198      24  114204  114198      24  114204  114201
      25  114210  114207      24  114213  114207      24  114213  114210      25
  114219  114216      24  114222  114216      24  114222  114219      25  114228
  114225      24  114231  114225      24  114231  114228      25  114237  114234
      24  114240  114234      24  114240  114237      25  114246  114243      24
  114249  114243      24  114249  114246      25  114255  114252      24  114258
  114252      24  114258  114255      25  114264  114261      24  114267  114261
      24  114267  114264      25  114273  114270      24  114276  114270      24
  114276  114273      25  114282  114279      24  114285  114279      24  114285
  114282      25  114291  114288      24  114294  114288      24  114294  114291
      25  114300  114297      24  114303  114297      24  114303  114300      25
  114309  114306      24  114312  114306      24  114312  114309      25  114318
  114315      24  114321  114315      24  114321  114318      25  114327  114324
      24  114330  114324      24  114330  114327      25  114336  114333      24
  114339  114333      24  114339  114336      25  114345  114342      24  114348
  114342      24  114348  114345      25  114354  114351      24  114357  114351
      24  114357  114354      25  114363  114360      24  114366  114360      24
  114366  114363      25  114372  114369      24  114375  114369      24  114375
  114372      25  114381  114378      24  114384  114378      24  114384  114381
      25  114390  114387      24  114393  114387      24  114393  114390      25
  114399  114396      24  114402  114396      24  114402  114399      25  114408
  114405      24  114411  114405      24  114411  114408      25  114417  114414
      24  114420  114414      24  114420  114417      25  114426  114423      24
  114429  114423      24  114429  114426      25  114435  114432      24  114438
  114432      24  114438  114435      25  114444  114441      24  114447  114441
      24  114447  114444      25  114453  114450      24  114456  114450      24
  114456  114453      25  114462  114459      24  114465  114459      24  114465
  114462      25  114471  114468      24  114474  114468      24  114474  114471
      25  114480  114477      24  114483  114477      24  114483  114480      25
  114489  114486      24  114492  114486      24  114492  114489      25  114498
  114495      24  114501  114495      24  114501  114498      25  114507  114504
      24  114510  114504      24  114510  114507      25  114516  114513      24
  114519  114513      24  114519  114516      25  114525  114522      24  114528
  114522      24  114528  114525      25  114534  114531      24  114537  114531
      24  114537  114534      25  114543  114540      24  114546  114540      24
  114546  114543      25  114552  114549      24  114555  114549      24  114555
  114552      25  114561  114558      24  114564  114558      24  114564  114561
      25  114570  114567      24  114573  114567      24  114573  114570      25
  114579  114576      24  114582  114576      24  114582  114579      25  114588
  114585      24  114591  114585      24  114591  114588      25  114597  114594
      24  114600  114594      24  114600  114597      25  114606  114603      24
  114609  114603      24  114609  114606      25  114615  114612      24  114618
  114612      24  114618  114615      25  114624  114621      24  114627  114621
      24  114627  114624      25  114633  114630      24  114636  114630      24
  114636  114633      25  114642  114639      24  114645  114639      24  114645
  114642      25  114651  114648      24  114654  114648      24  114654  114651
      25  114660  114657      24  114663  114657      24  114663  114660      25
  114669  114666      24  114672  114666      24  114672  114669      25  114678
  114675      24  114681  114675      24  114681  114678      25  114687  114684
      24  114690  114684      24  114690  114687      25  114696  114693      24
  114699  114693      24  114699  114696      25  114705  114702      24  114708
  114702      24  114708  114705      25  114714  114711      24  114717  114711
      24  114717  114714      25  114723  114720      24  114726  114720      24
  114726  114723      25  114732  114729      24  114735  114729      24  114735
  114732      25  114741  114738      24  114744  114738      24  114744  114741
      25  114750  114747      24  114753  114747      24  114753  114750      25
  114759  114756      24  114762  114756      24  114762  114759      25  114768
  114765      24  114771  114765      24  114771  114768      25  114777  114774
      24  114780  114774      24  114780  114777      25  114786  114783      24
  114789  114783      24  114789  114786      25  114795  114792      24  114798
  114792      24  114798  114795      25  114804  114801      24  114807  114801
      24  114807  114804      25  114813  114810      24  114816  114810      24
  114816  114813      25  114822  114819      24  114825  114819      24  114825
  114822      25  114831  114828      24  114834  114828      24  114834  114831
      25  114840  114837      24  114843  114837      24  114843  114840      25
  114849  114846      24  114852  114846      24  114852  114849      25  114858
  114855      24  114861  114855      24  114861  114858      25  114867  114864
      24  114870  114864      24  114870  114867      25  114876  114873      24
  114879  114873      24  114879  114876      25  114885  114882      24  114888
  114882      24  114888  114885      25  114894  114891      24  114897  114891
      24  114897  114894      25  114903  114900      24  114906  114900      24
  114906  114903      25  114912  114909      24  114915  114909      24  114915
  114912      25  114921  114918      24  114924  114918      24  114924  114921
      25  114930  114927      24  114933  114927      24  114933  114930      25
  114939  114936      24  114942  114936      24  114942  114939      25  114948
  114945      24  114951  114945      24  114951  114948      25  114957  114954
      24  114960  114954      24  114960  114957      25  114966  114963      24
  114969  114963      24  114969  114966      25  114975  114972      24  114978
  114972      24  114978  114975      25  114984  114981      24  114987  114981
      24  114987  114984      25  114993  114990      24  114996  114990      24
  114996  114993      25  115002  114999      24  115005  114999      24  115005
  115002      25  115011  115008      24  115014  115008      24  115014  115011
      25  115020  115017      24  115023  115017      24  115023  115020      25
  115029  115026      24  115032  115026      24  115032  115029      25  115038
  115035      24  115041  115035      24  115041  115038      25  115047  115044
      24  115050  115044      24  115050  115047      25  115056  115053      24
  115059  115053      24  115059  115056      25  115065  115062      24  115068
  115062      24  115068  115065      25  115074  115071      24  115077  115071
      24  115077  115074      25  115083  115080      24  115086  115080      24
  115086  115083      25  115092  115089      24  115095  115089      24  115095
  115092      25  115101  115098      24  115104  115098      24  115104  115101
      25  115110  115107      24  115113  115107      24  115113  115110      25
  115119  115116      24  115122  115116      24  115122  115119      25  115128
  115125      24  115131  115125      24  115131  115128      25  115137  115134
      24  115140  115134      24  115140  115137      25  115146  115143      24
  115149  115143      24  115149  115146      25  115155  115152      24  115158
  115152      24  115158  115155      25  115164  115161      24  115167  115161
      24  115167  115164      25  115173  115170      24  115176  115170      24
  115176  115173      25  115182  115179      24  115185  115179      24  115185
  115182      25  115191  115188      24  115194  115188      24  115194  115191
      25  115200  115197      24  115203  115197      24  115203  115200      25
  115209  115206      24  115212  115206      24  115212  115209      25  115218
  115215      24  115221  115215      24  115221  115218      25  115227  115224
      24  115230  115224      24  115230  115227      25  115236  115233      24
  115239  115233      24  115239  115236      25  115245  115242      24  115248
  115242      24  115248  115245      25  115254  115251      24  115257  115251
      24  115257  115254      25  115263  115260      24  115266  115260      24
  115266  115263      25  115272  115269      24  115275  115269      24  115275
  115272      25  115281  115278      24  115284  115278      24  115284  115281
      25  115290  115287      24  115293  115287      24  115293  115290      25
  115299  115296      24  115302  115296      24  115302  115299      25  115308
  115305      24  115311  115305      24  115311  115308      25  115317  115314
      24  115320  115314      24  115320  115317      25  115326  115323      24
  115329  115323      24  115329  115326      25  115335  115332      24  115338
  115332      24  115338  115335      25  115344  115341      24  115347  115341
      24  115347  115344      25  115353  115350      24  115356  115350      24
  115356  115353      25  115362  115359      24  115365  115359      24  115365
  115362      25  115371  115368      24  115374  115368      24  115374  115371
      25  115380  115377      24  115383  115377      24  115383  115380      25
  115389  115386      24  115392  115386      24  115392  115389      25  115398
  115395      24  115401  115395      24  115401  115398      25  115407  115404
      24  115410  115404      24  115410  115407      25  115416  115413      24
  115419  115413      24  115419  115416      25  115425  115422      24  115428
  115422      24  115428  115425      25  115434  115431      24  115437  115431
      24  115437  115434      25  115443  115440      24  115446  115440      24
  115446  115443      25  115452  115449      24  115455  115449      24  115455
  115452      25  115461  115458      24  115464  115458      24  115464  115461
      25  115470  115467      24  115473  115467      24  115473  115470      25
  115479  115476      24  115482  115476      24  115482  115479      25  115488
  115485      24  115491  115485      24  115491  115488      25  115497  115494
      24  115500  115494      24  115500  115497      25  115506  115503      24
  115509  115503      24  115509  115506      25  115515  115512      24  115518
  115512      24  115518  115515      25  115524  115521      24  115527  115521
      24  115527  115524      25  115533  115530      24  115536  115530      24
  115536  115533      25  115542  115539      24  115545  115539      24  115545
  115542      25  115551  115548      24  115554  115548      24  115554  115551
      25  115560  115557      24  115563  115557      24  115563  115560      25
  115569  115566      24  115572  115566      24  115572  115569      25  115578
  115575      24  115581  115575      24  115581  115578      25  115587  115584
      24  115590  115584      24  115590  115587      25  115596  115593      24
  115599  115593      24  115599  115596      25  115605  115602      24  115608
  115602      24  115608  115605      25  115614  115611      24  115617  115611
      24  115617  115614      25  115623  115620      24  115626  115620      24
  115626  115623      25  115632  115629      24  115635  115629      24  115635
  115632      25  115641  115638      24  115644  115638      24  115644  115641
      25  115650  115647      24  115653  115647      24  115653  115650      25
  115659  115656      24  115662  115656      24  115662  115659      25  115668
  115665      24  115671  115665      24  115671  115668      25  115677  115674
      24  115680  115674      24  115680  115677      25  115686  115683      24
  115689  115683      24  115689  115686      25  115695  115692      24  115698
  115692      24  115698  115695      25  115704  115701      24  115707  115701
      24  115707  115704      25  115713  115710      24  115716  115710      24
  115716  115713      25  115722  115719      24  115725  115719      24  115725
  115722      25  115731  115728      24  115734  115728      24  115734  115731
      25  115740  115737      24  115743  115737      24  115743  115740      25
  115749  115746      24  115752  115746      24  115752  115749      25  115758
  115755      24  115761  115755      24  115761  115758      25  115767  115764
      24  115770  115764      24  115770  115767      25  115776  115773      24
  115779  115773      24  115779  115776      25  115785  115782      24  115788
  115782      24  115788  115785      25  115794  115791      24  115797  115791
      24  115797  115794      25  115803  115800      24  115806  115800      24
  115806  115803      25  115812  115809      24  115815  115809      24  115815
  115812      25  115821  115818      24  115824  115818      24  115824  115821
      25  115830  115827      24  115833  115827      24  115833  115830      25
  115839  115836      24  115842  115836      24  115842  115839      25  115848
  115845      24  115851  115845      24  115851  115848      25  115857  115854
      24  115860  115854      24  115860  115857      25  115866  115863      24
  115869  115863      24  115869  115866      25  115875  115872      24  115878
  115872      24  115878  115875      25  115884  115881      24  115887  115881
      24  115887  115884      25  115893  115890      24  115896  115890      24
  115896  115893      25  115902  115899      24  115905  115899      24  115905
  115902      25  115911  115908      24  115914  115908      24  115914  115911
      25  115920  115917      24  115923  115917      24  115923  115920      25
  115929  115926      24  115932  115926      24  115932  115929      25  115938
  115935      24  115941  115935      24  115941  115938      25  115947  115944
      24  115950  115944      24  115950  115947      25  115956  115953      24
  115959  115953      24  115959  115956      25  115965  115962      24  115968
  115962      24  115968  115965      25  115974  115971      24  115977  115971
      24  115977  115974      25  115983  115980      24  115986  115980      24
  115986  115983      25  115992  115989      24  115995  115989      24  115995
  115992      25  116001  115998      24  116004  115998      24  116004  116001
      25  116010  116007      24  116013  116007      24  116013  116010      25
  116019  116016      24  116022  116016      24  116022  116019      25  116028
  116025      24  116031  116025      24  116031  116028      25  116037  116034
      24  116040  116034      24  116040  116037      25  116046  116043      24
  116049  116043      24  116049  116046      25  116055  116052      24  116058
  116052      24  116058  116055      25  116064  116061      24  116067  116061
      24  116067  116064      25  116073  116070      24  116076  116070      24
  116076  116073      25  116082  116079      24  116085  116079      24  116085
  116082      25  116091  116088      24  116094  116088      24  116094  116091
      25  116100  116097      24  116103  116097      24  116103  116100      25
  116109  116106      24  116112  116106      24  116112  116109      25  116118
  116115      24  116121  116115      24  116121  116118      25  116127  116124
      24  116130  116124      24  116130  116127      25  116136  116133      24
  116139  116133      24  116139  116136      25  116145  116142      24  116148
  116142      24  116148  116145      25  116154  116151      24  116157  116151
      24  116157  116154      25  116163  116160      24  116166  116160      24
  116166  116163      25  116172  116169      24  116175  116169      24  116175
  116172      25  116181  116178      24  116184  116178      24  116184  116181
      25  116190  116187      24  116193  116187      24  116193  116190      25
  116199  116196      24  116202  116196      24  116202  116199      25  116208
  116205      24  116211  116205      24  116211  116208      25  116217  116214
      24  116220  116214      24  116220  116217      25  116226  116223      24
  116229  116223      24  116229  116226      25  116235  116232      24  116238
  116232      24  116238  116235      25  116244  116241      24  116247  116241
      24  116247  116244      25  116253  116250      24  116256  116250      24
  116256  116253      25  116262  116259      24  116265  116259      24  116265
  116262      25  116271  116268      24  116274  116268      24  116274  116271
      25  116280  116277      24  116283  116277      24  116283  116280      25
  116289  116286      24  116292  116286      24  116292  116289      25  116298
  116295      24  116301  116295      24  116301  116298      25  116307  116304
      24  116310  116304      24  116310  116307      25  116316  116313      24
  116319  116313      24  116319  116316      25  116325  116322      24  116328
  116322      24  116328  116325      25  116334  116331      24  116337  116331
      24  116337  116334      25  116343  116340      24  116346  116340      24
  116346  116343      25  116352  116349      24  116355  116349      24  116355
  116352      25  116361  116358      24  116364  116358      24  116364  116361
      25  116370  116367      24  116373  116367      24  116373  116370      25
  116379  116376      24  116382  116376      24  116382  116379      25  116388
  116385      24  116391  116385      24  116391  116388      25  116397  116394
      24  116400  116394      24  116400  116397      25  116406  116403      24
  116409  116403      24  116409  116406      25  116415  116412      24  116418
  116412      24  116418  116415      25  116424  116421      24  116427  116421
      24  116427  116424      25  116433  116430      24  116436  116430      24
  116436  116433      25  116442  116439      24  116445  116439      24  116445
  116442      25  116451  116448      24  116454  116448      24  116454  116451
      25  116460  116457      24  116463  116457      24  116463  116460      25
  116469  116466      24  116472  116466      24  116472  116469      25  116478
  116475      24  116481  116475      24  116481  116478      25  116487  116484
      24  116490  116484      24  116490  116487      25  116496  116493      24
  116499  116493      24  116499  116496      25  116505  116502      24  116508
  116502      24  116508  116505      25  116514  116511      24  116517  116511
      24  116517  116514      25  116523  116520      24  116526  116520      24
  116526  116523      25  116532  116529      24  116535  116529      24  116535
  116532      25  116541  116538      24  116544  116538      24  116544  116541
      25  116550  116547      24  116553  116547      24  116553  116550      25
  116559  116556      24  116562  116556      24  116562  116559      25  116568
  116565      24  116571  116565      24  116571  116568      25  116577  116574
      24  116580  116574      24  116580  116577      25  116586  116583      24
  116589  116583      24  116589  116586      25  116595  116592      24  116598
  116592      24  116598  116595      25  116604  116601      24  116607  116601
      24  116607  116604      25  116613  116610      24  116616  116610      24
  116616  116613      25  116622  116619      24  116625  116619      24  116625
  116622      25  116631  116628      24  116634  116628      24  116634  116631
      25  116640  116637      24  116643  116637      24  116643  116640      25
  116649  116646      24  116652  116646      24  116652  116649      25  116658
  116655      24  116661  116655      24  116661  116658      25  116667  116664
      24  116670  116664      24  116670  116667      25  116676  116673      24
  116679  116673      24  116679  116676      25  116685  116682      24  116688
  116682      24  116688  116685      25  116694  116691      24  116697  116691
      24  116697  116694      25  116703  116700      24  116706  116700      24
  116706  116703      25  116712  116709      24  116715  116709      24  116715
  116712      25  116721  116718      24  116724  116718      24  116724  116721
      25  116730  116727      24  116733  116727      24  116733  116730      25
  116739  116736      24  116742  116736      24  116742  116739      25  116748
  116745      24  116751  116745      24  116751  116748      25  116757  116754
      24  116760  116754      24  116760  116757      25  116766  116763      24
  116769  116763      24  116769  116766      25  116775  116772      24  116778
  116772      24  116778  116775      25  116784  116781      24  116787  116781
      24  116787  116784      25  116793  116790      24  116796  116790      24
  116796  116793      25  116802  116799      24  116805  116799      24  116805
  116802      25  116811  116808      24  116814  116808      24  116814  116811
      25  116820  116817      24  116823  116817      24  116823  116820      25
  116829  116826      24  116832  116826      24  116832  116829      25  116838
  116835      24  116841  116835      24  116841  116838      25  116847  116844
      24  116850  116844      24  116850  116847      25  116856  116853      24
  116859  116853      24  116859  116856      25  116865  116862      24  116868
  116862      24  116868  116865      25  116874  116871      24  116877  116871
      24  116877  116874      25  116883  116880      24  116886  116880      24
  116886  116883      25  116892  116889      24  116895  116889      24  116895
  116892      25  116901  116898      24  116904  116898      24  116904  116901
      25  116910  116907      24  116913  116907      24  116913  116910      25
  116919  116916      24  116922  116916      24  116922  116919      25  116928
  116925      24  116931  116925      24  116931  116928      25  116937  116934
      24  116940  116934      24  116940  116937      25  116946  116943      24
  116949  116943      24  116949  116946      25  116955  116952      24  116958
  116952      24  116958  116955      25  116964  116961      24  116967  116961
      24  116967  116964      25  116973  116970      24  116976  116970      24
  116976  116973      25  116982  116979      24  116985  116979      24  116985
  116982      25  116991  116988      24  116994  116988      24  116994  116991
      25  117000  116997      24  117003  116997      24  117003  117000      25
  117009  117006      24  117012  117006      24  117012  117009      25  117018
  117015      24  117021  117015      24  117021  117018      25  117027  117024
      24  117030  117024      24  117030  117027      25  117036  117033      24
  117039  117033      24  117039  117036      25  117045  117042      24  117048
  117042      24  117048  117045      25  117054  117051      24  117057  117051
      24  117057  117054      25  117063  117060      24  117066  117060      24
  117066  117063      25  117072  117069      24  117075  117069      24  117075
  117072      25  117081  117078      24  117084  117078      24  117084  117081
      25  117090  117087      24  117093  117087      24  117093  117090      25
  117099  117096      24  117102  117096      24  117102  117099      25  117108
  117105      24  117111  117105      24  117111  117108      25  117117  117114
      24  117120  117114      24  117120  117117      25  117126  117123      24
  117129  117123      24  117129  117126      25  117135  117132      24  117138
  117132      24  117138  117135      25  117144  117141      24  117147  117141
      24  117147  117144      25  117153  117150      24  117156  117150      24
  117156  117153      25  117162  117159      24  117165  117159      24  117165
  117162      25  117171  117168      24  117174  117168      24  117174  117171
      25  117180  117177      24  117183  117177      24  117183  117180      25
  117189  117186      24  117192  117186      24  117192  117189      25  117198
  117195      24  117201  117195      24  117201  117198      25  117207  117204
      24  117210  117204      24  117210  117207      25  117216  117213      24
  117219  117213      24  117219  117216      25  117225  117222      24  117228
  117222      24  117228  117225      25  117234  117231      24  117237  117231
      24  117237  117234      25  117243  117240      24  117246  117240      24
  117246  117243      25  117252  117249      24  117255  117249      24  117255
  117252      25  117261  117258      24  117264  117258      24  117264  117261
      25  117270  117267      24  117273  117267      24  117273  117270      25
  117279  117276      24  117282  117276      24  117282  117279      25  117288
  117285      24  117291  117285      24  117291  117288      25  117297  117294
      24  117300  117294      24  117300  117297      25  117306  117303      24
  117309  117303      24  117309  117306      25  117315  117312      24  117318
  117312      24  117318  117315      25  117324  117321      24  117327  117321
      24  117327  117324      25  117333  117330      24  117336  117330      24
  117336  117333      25  117342  117339      24  117345  117339      24  117345
  117342      25  117351  117348      24  117354  117348      24  117354  117351
      25  117360  117357      24  117363  117357      24  117363  117360      25
  117369  117366      24  117372  117366      24  117372  117369      25  117378
  117375      24  117381  117375      24  117381  117378      25  117387  117384
      24  117390  117384      24  117390  117387      25  117396  117393      24
  117399  117393      24  117399  117396      25  117405  117402      24  117408
  117402      24  117408  117405      25  117414  117411      24  117417  117411
      24  117417  117414      25  117423  117420      24  117426  117420      24
  117426  117423      25  117432  117429      24  117435  117429      24  117435
  117432      25  117441  117438      24  117444  117438      24  117444  117441
      25  117450  117447      24  117453  117447      24  117453  117450      25
  117459  117456      24  117462  117456      24  117462  117459      25  117468
  117465      24  117471  117465      24  117471  117468      25  117477  117474
      24  117480  117474      24  117480  117477      25  117486  117483      24
  117489  117483      24  117489  117486      25  117495  117492      24  117498
  117492      24  117498  117495      25  117504  117501      24  117507  117501
      24  117507  117504      25  117513  117510      24  117516  117510      24
  117516  117513      25  117522  117519      24  117525  117519      24  117525
  117522      25  117531  117528      24  117534  117528      24  117534  117531
      25  117540  117537      24  117543  117537      24  117543  117540      25
  117549  117546      24  117552  117546      24  117552  117549      25  117558
  117555      24  117561  117555      24  117561  117558      25  117567  117564
      24  117570  117564      24  117570  117567      25  117576  117573      24
  117579  117573      24  117579  117576      25  117585  117582      24  117588
  117582      24  117588  117585      25  117594  117591      24  117597  117591
      24  117597  117594      25  117603  117600      24  117606  117600      24
  117606  117603      25  117612  117609      24  117615  117609      24  117615
  117612      25  117621  117618      24  117624  117618      24  117624  117621
      25  117630  117627      24  117633  117627      24  117633  117630      25
  117639  117636      24  117642  117636      24  117642  117639      25  117648
  117645      24  117651  117645      24  117651  117648      25  117657  117654
      24  117660  117654      24  117660  117657      25  117666  117663      24
  117669  117663      24  117669  117666      25  117675  117672      24  117678
  117672      24  117678  117675      25  117684  117681      24  117687  117681
      24  117687  117684      25  117693  117690      24  117696  117690      24
  117696  117693      25  117702  117699      24  117705  117699      24  117705
  117702      25  117711  117708      24  117714  117708      24  117714  117711
      25  117720  117717      24  117723  117717      24  117723  117720      25
  117729  117726      24  117732  117726      24  117732  117729      25  117738
  117735      24  117741  117735      24  117741  117738      25  117747  117744
      24  117750  117744      24  117750  117747      25  117756  117753      24
  117759  117753      24  117759  117756      25  117765  117762      24  117768
  117762      24  117768  117765      25  117774  117771      24  117777  117771
      24  117777  117774      25  117783  117780      24  117786  117780      24
  117786  117783      25  117792  117789      24  117795  117789      24  117795
  117792      25  117801  117798      24  117804  117798      24  117804  117801
      25  117810  117807      24  117813  117807      24  117813  117810      25
  117819  117816      24  117822  117816      24  117822  117819      25  117828
  117825      24  117831  117825      24  117831  117828      25  117837  117834
      24  117840  117834      24  117840  117837      25  117846  117843      24
  117849  117843      24  117849  117846      25  117855  117852      24  117858
  117852      24  117858  117855      25  117864  117861      24  117867  117861
      24  117867  117864      25  117873  117870      24  117876  117870      24
  117876  117873      25  117882  117879      24  117885  117879      24  117885
  117882      25  117891  117888      24  117894  117888      24  117894  117891
      25  117900  117897      24  117903  117897      24  117903  117900      25
  117909  117906      24  117912  117906      24  117912  117909      25  117918
  117915      24  117921  117915      24  117921  117918      25  117927  117924
      24  117930  117924      24  117930  117927      25  117936  117933      24
  117939  117933      24  117939  117936      25  117945  117942      24  117948
  117942      24  117948  117945      25  117954  117951      24  117957  117951
      24  117957  117954      25  117963  117960      24  117966  117960      24
  117966  117963      25  117972  117969      24  117975  117969      24  117975
  117972      25  117981  117978      24  117984  117978      24  117984  117981
      25  117990  117987      24  117993  117987      24  117993  117990      25
  117999  117996      24  118002  117996      24  118002  117999      25  118008
  118005      24  118011  118005      24  118011  118008      25  118017  118014
      24  118020  118014      24  118020  118017      25  118026  118023      24
  118029  118023      24  118029  118026      25  118035  118032      24  118038
  118032      24  118038  118035      25  118044  118041      24  118047  118041
      24  118047  118044      25  118053  118050      24  118056  118050      24
  118056  118053      25  118062  118059      24  118065  118059      24  118065
  118062      25  118071  118068      24  118074  118068      24  118074  118071
      25  118080  118077      24  118083  118077      24  118083  118080      25
  118089  118086      24  118092  118086      24  118092  118089      25  118098
  118095      24  118101  118095      24  118101  118098      25  118107  118104
      24  118110  118104      24  118110  118107      25  118116  118113      24
  118119  118113      24  118119  118116      25  118125  118122      24  118128
  118122      24  118128  118125      25  118134  118131      24  118137  118131
      24  118137  118134      25  118143  118140      24  118146  118140      24
  118146  118143      25  118152  118149      24  118155  118149      24  118155
  118152      25  118161  118158      24  118164  118158      24  118164  118161
      25  118170  118167      24  118173  118167      24  118173  118170      25
  118179  118176      24  118182  118176      24  118182  118179      25  118188
  118185      24  118191  118185      24  118191  118188      25  118197  118194
      24  118200  118194      24  118200  118197      25  118206  118203      24
  118209  118203      24  118209  118206      25  118215  118212      24  118218
  118212      24  118218  118215      25  118224  118221      24  118227  118221
      24  118227  118224      25  118233  118230      24  118236  118230      24
  118236  118233      25  118242  118239      24  118245  118239      24  118245
  118242      25  118251  118248      24  118254  118248      24  118254  118251
      25  118260  118257      24  118263  118257      24  118263  118260      25
  118269  118266      24  118272  118266      24  118272  118269      25  118278
  118275      24  118281  118275      24  118281  118278      25  118287  118284
      24  118290  118284      24  118290  118287      25  118296  118293      24
  118299  118293      24  118299  118296      25  118305  118302      24  118308
  118302      24  118308  118305      25  118314  118311      24  118317  118311
      24  118317  118314      25  118323  118320      24  118326  118320      24
  118326  118323      25  118332  118329      24  118335  118329      24  118335
  118332      25  118341  118338      24  118344  118338      24  118344  118341
      25  118350  118347      24  118353  118347      24  118353  118350      25
  118359  118356      24  118362  118356      24  118362  118359      25  118368
  118365      24  118371  118365      24  118371  118368      25  118377  118374
      24  118380  118374      24  118380  118377      25  118386  118383      24
  118389  118383      24  118389  118386      25  118395  118392      24  118398
  118392      24  118398  118395      25  118404  118401      24  118407  118401
      24  118407  118404      25  118413  118410      24  118416  118410      24
  118416  118413      25  118422  118419      24  118425  118419      24  118425
  118422      25  118431  118428      24  118434  118428      24  118434  118431
      25  118440  118437      24  118443  118437      24  118443  118440      25
  118449  118446      24  118452  118446      24  118452  118449      25  118458
  118455      24  118461  118455      24  118461  118458      25  118467  118464
      24  118470  118464      24  118470  118467      25  118476  118473      24
  118479  118473      24  118479  118476      25  118485  118482      24  118488
  118482      24  118488  118485      25  118494  118491      24  118497  118491
      24  118497  118494      25  118503  118500      24  118506  118500      24
  118506  118503      25  118512  118509      24  118515  118509      24  118515
  118512      25  118521  118518      24  118524  118518      24  118524  118521
      25  118530  118527      24  118533  118527      24  118533  118530      25
  118539  118536      24  118542  118536      24  118542  118539      25  118548
  118545      24  118551  118545      24  118551  118548      25  118557  118554
      24  118560  118554      24  118560  118557      25  118566  118563      24
  118569  118563      24  118569  118566      25  118575  118572      24  118578
  118572      24  118578  118575      25  118584  118581      24  118587  118581
      24  118587  118584      25  118593  118590      24  118596  118590      24
  118596  118593      25  118602  118599      24  118605  118599      24  118605
  118602      25  118611  118608      24  118614  118608      24  118614  118611
      25  118620  118617      24  118623  118617      24  118623  118620      25
  118629  118626      24  118632  118626      24  118632  118629      25  118638
  118635      24  118641  118635      24  118641  118638      25  118647  118644
      24  118650  118644      24  118650  118647      25  118656  118653      24
  118659  118653      24  118659  118656      25  118665  118662      24  118668
  118662      24  118668  118665      25  118674  118671      24  118677  118671
      24  118677  118674      25  118683  118680      24  118686  118680      24
  118686  118683      25  118692  118689      24  118695  118689      24  118695
  118692      25  118701  118698      24  118704  118698      24  118704  118701
      25  118710  118707      24  118713  118707      24  118713  118710      25
  118719  118716      24  118722  118716      24  118722  118719      25  118728
  118725      24  118731  118725      24  118731  118728      25  118737  118734
      24  118740  118734      24  118740  118737      25  118746  118743      24
  118749  118743      24  118749  118746      25  118755  118752      24  118758
  118752      24  118758  118755      25  118764  118761      24  118767  118761
      24  118767  118764      25  118773  118770      24  118776  118770      24
  118776  118773      25  118782  118779      24  118785  118779      24  118785
  118782      25  118791  118788      24  118794  118788      24  118794  118791
      25  118800  118797      24  118803  118797      24  118803  118800      25
  118809  118806      24  118812  118806      24  118812  118809      25  118818
  118815      24  118821  118815      24  118821  118818      25  118827  118824
      24  118830  118824      24  118830  118827      25  118836  118833      24
  118839  118833      24  118839  118836      25  118845  118842      24  118848
  118842      24  118848  118845      25  118854  118851      24  118857  118851
      24  118857  118854      25  118863  118860      24  118866  118860      24
  118866  118863      25  118872  118869      24  118875  118869      24  118875
  118872      25  118881  118878      24  118884  118878      24  118884  118881
      25  118890  118887      24  118893  118887      24  118893  118890      25
  118899  118896      24  118902  118896      24  118902  118899      25  118908
  118905      24  118911  118905      24  118911  118908      25  118917  118914
      24  118920  118914      24  118920  118917      25  118926  118923      24
  118929  118923      24  118929  118926      25  118935  118932      24  118938
  118932      24  118938  118935      25  118944  118941      24  118947  118941
      24  118947  118944      25  118953  118950      24  118956  118950      24
  118956  118953      25  118962  118959      24  118965  118959      24  118965
  118962      25  118971  118968      24  118974  118968      24  118974  118971
      25  118980  118977      24  118983  118977      24  118983  118980      25
  118989  118986      24  118992  118986      24  118992  118989      25  118998
  118995      24  119001  118995      24  119001  118998      25  119007  119004
      24  119010  119004      24  119010  119007      25  119016  119013      24
  119019  119013      24  119019  119016      25  119025  119022      24  119028
  119022      24  119028  119025      25  119034  119031      24  119037  119031
      24  119037  119034      25  119043  119040      24  119046  119040      24
  119046  119043      25  119052  119049      24  119055  119049      24  119055
  119052      25  119061  119058      24  119064  119058      24  119064  119061
      25  119070  119067      24  119073  119067      24  119073  119070      25
  119079  119076      24  119082  119076      24  119082  119079      25  119088
  119085      24  119091  119085      24  119091  119088      25  119097  119094
      24  119100  119094      24  119100  119097      25  119106  119103      24
  119109  119103      24  119109  119106      25  119115  119112      24  119118
  119112      24  119118  119115      25  119124  119121      24  119127  119121
      24  119127  119124      25  119133  119130      24  119136  119130      24
  119136  119133      25  119142  119139      24  119145  119139      24  119145
  119142      25  119151  119148      24  119154  119148      24  119154  119151
      25  119160  119157      24  119163  119157      24  119163  119160      25
  119169  119166      24  119172  119166      24  119172  119169      25  119178
  119175      24  119181  119175      24  119181  119178      25  119187  119184
      24  119190  119184      24  119190  119187      25  119196  119193      24
  119199  119193      24  119199  119196      25  119205  119202      24  119208
  119202      24  119208  119205      25  119214  119211      24  119217  119211
      24  119217  119214      25  119223  119220      24  119226  119220      24
  119226  119223      25  119232  119229      24  119235  119229      24  119235
  119232      25  119241  119238      24  119244  119238      24  119244  119241
      25  119250  119247      24  119253  119247      24  119253  119250      25
  119259  119256      24  119262  119256      24  119262  119259      25  119268
  119265      24  119271  119265      24  119271  119268      25  119277  119274
      24  119280  119274      24  119280  119277      25  119286  119283      24
  119289  119283      24  119289  119286      25  119295  119292      24  119298
  119292      24  119298  119295      25  119304  119301      24  119307  119301
      24  119307  119304      25  119313  119310      24  119316  119310      24
  119316  119313      25  119322  119319      24  119325  119319      24  119325
  119322      25  119331  119328      24  119334  119328      24  119334  119331
      25  119340  119337      24  119343  119337      24  119343  119340      25
  119349  119346      24  119352  119346      24  119352  119349      25  119358
  119355      24  119361  119355      24  119361  119358      25  119367  119364
      24  119370  119364      24  119370  119367      25  119376  119373      24
  119379  119373      24  119379  119376      25  119385  119382      24  119388
  119382      24  119388  119385      25  119394  119391      24  119397  119391
      24  119397  119394      25  119403  119400      24  119406  119400      24
  119406  119403      25  119412  119409      24  119415  119409      24  119415
  119412      25  119421  119418      24  119424  119418      24  119424  119421
      25  119430  119427      24  119433  119427      24  119433  119430      25
  119439  119436      24  119442  119436      24  119442  119439      25  119448
  119445      24  119451  119445      24  119451  119448      25  119457  119454
      24  119460  119454      24  119460  119457      25  119466  119463      24
  119469  119463      24  119469  119466      25  119475  119472      24  119478
  119472      24  119478  119475      25  119484  119481      24  119487  119481
      24  119487  119484      25  119493  119490      24  119496  119490      24
  119496  119493      25  119502  119499      24  119505  119499      24  119505
  119502      25  119511  119508      24  119514  119508      24  119514  119511
      25  119520  119517      24  119523  119517      24  119523  119520      25
  119529  119526      24  119532  119526      24  119532  119529      25  119538
  119535      24  119541  119535      24  119541  119538      25  119547  119544
      24  119550  119544      24  119550  119547      25  119556  119553      24
  119559  119553      24  119559  119556      25  119565  119562      24  119568
  119562      24  119568  119565      25  119574  119571      24  119577  119571
      24  119577  119574      25  119583  119580      24  119586  119580      24
  119586  119583      25  119592  119589      24  119595  119589      24  119595
  119592      25  119601  119598      24  119604  119598      24  119604  119601
      25  119610  119607      24  119613  119607      24  119613  119610      25
  119619  119616      24  119622  119616      24  119622  119619      25  119628
  119625      24  119631  119625      24  119631  119628      25  119637  119634
      24  119640  119634      24  119640  119637      25  119646  119643      24
  119649  119643      24  119649  119646      25  119655  119652      24  119658
  119652      24  119658  119655      25  119664  119661      24  119667  119661
      24  119667  119664      25  119673  119670      24  119676  119670      24
  119676  119673      25  119682  119679      24  119685  119679      24  119685
  119682      25  119691  119688      24  119694  119688      24  119694  119691
      25  119700  119697      24  119703  119697      24  119703  119700      25
  119709  119706      24  119712  119706      24  119712  119709      25  119718
  119715      24  119721  119715      24  119721  119718      25  119727  119724
      24  119730  119724      24  119730  119727      25  119736  119733      24
  119739  119733      24  119739  119736      25  119745  119742      24  119748
  119742      24  119748  119745      25  119754  119751      24  119757  119751
      24  119757  119754      25  119763  119760      24  119766  119760      24
  119766  119763      25  119772  119769      24  119775  119769      24  119775
  119772      25  119781  119778      24  119784  119778      24  119784  119781
      25  119790  119787      24  119793  119787      24  119793  119790      25
  119799  119796      24  119802  119796      24  119802  119799      25  119808
  119805      24  119811  119805      24  119811  119808      25  119817  119814
      24  119820  119814      24  119820  119817      25  119826  119823      24
  119829  119823      24  119829  119826      25  119835  119832      24  119838
  119832      24  119838  119835      25  119844  119841      24  119847  119841
      24  119847  119844      25  119853  119850      24  119856  119850      24
  119856  119853      25  119862  119859      24  119865  119859      24  119865
  119862      25  119871  119868      24  119874  119868      24  119874  119871
      25  119880  119877      24  119883  119877      24  119883  119880      25
  119889  119886      24  119892  119886      24  119892  119889      25  119898
  119895      24  119901  119895      24  119901  119898      25  119907  119904
      24  119910  119904      24  119910  119907      25  119916  119913      24
  119919  119913      24  119919  119916      25  119925  119922      24  119928
  119922      24  119928  119925      25  119934  119931      24  119937  119931
      24  119937  119934      25  119943  119940      24  119946  119940      24
  119946  119943      25  119952  119949      24  119955  119949      24  119955
  119952      25  119961  119958      24  119964  119958      24  119964  119961
      25  119970  119967      24  119973  119967      24  119973  119970      25
  119979  119976      24  119982  119976      24  119982  119979      25  119988
  119985      24  119991  119985      24  119991  119988      25  119997  119994
      24  120000  119994      24  120000  119997      25  120006  120003      24
  120009  120003      24  120009  120006      25  120015  120012      24  120018
  120012      24  120018  120015      25  120024  120021      24  120027  120021
      24  120027  120024      25  120033  120030      24  120036  120030      24
  120036  120033      25  120042  120039      24  120045  120039      24  120045
  120042      25  120051  120048      24  120054  120048      24  120054  120051
      25  120060  120057      24  120063  120057      24  120063  120060      25
  120069  120066      24  120072  120066      24  120072  120069      25  120078
  120075      24  120081  120075      24  120081  120078      25  120087  120084
      24  120090  120084      24  120090  120087      25  120096  120093      24
  120099  120093      24  120099  120096      25  120105  120102      24  120108
  120102      24  120108  120105      25  120114  120111      24  120117  120111
      24  120117  120114      25  120123  120120      24  120126  120120      24
  120126  120123      25  120132  120129      24  120135  120129      24  120135
  120132      25  120141  120138      24  120144  120138      24  120144  120141
      25  120150  120147      24  120153  120147      24  120153  120150      25
  120159  120156      24  120162  120156      24  120162  120159      25  120168
  120165      24  120171  120165      24  120171  120168      25  120177  120174
      24  120180  120174      24  120180  120177      25  120186  120183      24
  120189  120183      24  120189  120186      25  120195  120192      24  120198
  120192      24  120198  120195      25  120204  120201      24  120207  120201
      24  120207  120204      25  120213  120210      24  120216  120210      24
  120216  120213      25  120222  120219      24  120225  120219      24  120225
  120222      25  120231  120228      24  120234  120228      24  120234  120231
      25  120240  120237      24  120243  120237      24  120243  120240      25
  120249  120246      24  120252  120246      24  120252  120249      25  120258
  120255      24  120261  120255      24  120261  120258      25  120267  120264
      24  120270  120264      24  120270  120267      25  120276  120273      24
  120279  120273      24  120279  120276      25  120285  120282      24  120288
  120282      24  120288  120285      25  120294  120291      24  120297  120291
      24  120297  120294      25  120303  120300      24  120306  120300      24
  120306  120303      25  120312  120309      24  120315  120309      24  120315
  120312      25  120321  120318      24  120324  120318      24  120324  120321
      25  120330  120327      24  120333  120327      24  120333  120330      25
  120339  120336      24  120342  120336      24  120342  120339      25  120348
  120345      24  120351  120345      24  120351  120348      25  120357  120354
      24  120360  120354      24  120360  120357      25  120366  120363      24
  120369  120363      24  120369  120366      25  120375  120372      24  120378
  120372      24  120378  120375      25  120384  120381      24  120387  120381
      24  120387  120384      25  120393  120390      24  120396  120390      24
  120396  120393      25  120402  120399      24  120405  120399      24  120405
  120402      25  120411  120408      24  120414  120408      24  120414  120411
      25  120420  120417      24  120423  120417      24  120423  120420      25
  120429  120426      24  120432  120426      24  120432  120429      25  120438
  120435      24  120441  120435      24  120441  120438      25  120447  120444
      24  120450  120444      24  120450  120447      25  120456  120453      24
  120459  120453      24  120459  120456      25  120465  120462      24  120468
  120462      24  120468  120465      25  120474  120471      24  120477  120471
      24  120477  120474      25  120483  120480      24  120486  120480      24
  120486  120483      25  120492  120489      24  120495  120489      24  120495
  120492      25  120501  120498      24  120504  120498      24  120504  120501
      25  120510  120507      24  120513  120507      24  120513  120510      25
  120519  120516      24  120522  120516      24  120522  120519      25  120528
  120525      24  120531  120525      24  120531  120528      25  120537  120534
      24  120540  120534      24  120540  120537      25  120546  120543      24
  120549  120543      24  120549  120546      25  120555  120552      24  120558
  120552      24  120558  120555      25  120564  120561      24  120567  120561
      24  120567  120564      25  120573  120570      24  120576  120570      24
  120576  120573      25  120582  120579      24  120585  120579      24  120585
  120582      25  120591  120588      24  120594  120588      24  120594  120591
      25  120600  120597      24  120603  120597      24  120603  120600      25
  120609  120606      24  120612  120606      24  120612  120609      25  120618
  120615      24  120621  120615      24  120621  120618      25  120627  120624
      24  120630  120624      24  120630  120627      25  120636  120633      24
  120639  120633      24  120639  120636      25  120645  120642      24  120648
  120642      24  120648  120645      25  120654  120651      24  120657  120651
      24  120657  120654      25  120663  120660      24  120666  120660      24
  120666  120663      25  120672  120669      24  120675  120669      24  120675
  120672      25  120681  120678      24  120684  120678      24  120684  120681
      25  120690  120687      24  120693  120687      24  120693  120690      25
  120699  120696      24  120702  120696      24  120702  120699      25  120708
  120705      24  120711  120705      24  120711  120708      25  120717  120714
      24  120720  120714      24  120720  120717      25  120726  120723      24
  120729  120723      24  120729  120726      25  120735  120732      24  120738
  120732      24  120738  120735      25  120744  120741      24  120747  120741
      24  120747  120744      25  120753  120750      24  120756  120750      24
  120756  120753      25  120762  120759      24  120765  120759      24  120765
  120762      25  120771  120768      24  120774  120768      24  120774  120771
      25  120780  120777      24  120783  120777      24  120783  120780      25
  120789  120786      24  120792  120786      24  120792  120789      25  120798
  120795      24  120801  120795      24  120801  120798      25  120807  120804
      24  120810  120804      24  120810  120807      25  120816  120813      24
  120819  120813      24  120819  120816      25  120825  120822      24  120828
  120822      24  120828  120825      25  120834  120831      24  120837  120831
      24  120837  120834      25  120843  120840      24  120846  120840      24
  120846  120843      25  120852  120849      24  120855  120849      24  120855
  120852      25  120861  120858      24  120864  120858      24  120864  120861
      25  120870  120867      24  120873  120867      24  120873  120870      25
  120879  120876      24  120882  120876      24  120882  120879      25  120888
  120885      24  120891  120885      24  120891  120888      25  120897  120894
      24  120900  120894      24  120900  120897      25  120906  120903      24
  120909  120903      24  120909  120906      25  120915  120912      24  120918
  120912      24  120918  120915      25  120924  120921      24  120927  120921
      24  120927  120924      25  120933  120930      24  120936  120930      24
  120936  120933      25  120942  120939      24  120945  120939      24  120945
  120942      25  120951  120948      24  120954  120948      24  120954  120951
      25  120960  120957      24  120963  120957      24  120963  120960      25
  120969  120966      24  120972  120966      24  120972  120969      25  120978
  120975      24  120981  120975      24  120981  120978      25  120987  120984
      24  120990  120984      24  120990  120987      25  120996  120993      24
  120999  120993      24  120999  120996      25  121005  121002      24  121008
  121002      24  121008  121005      25  121014  121011      24  121017  121011
      24  121017  121014      25  121023  121020      24  121026  121020      24
  121026  121023      25  121032  121029      24  121035  121029      24  121035
  121032      25  121041  121038      24  121044  121038      24  121044  121041
      25  121050  121047      24  121053  121047      24  121053  121050      25
  121059  121056      24  121062  121056      24  121062  121059      25  121068
  121065      24  121071  121065      24  121071  121068      25  121077  121074
      24  121080  121074      24  121080  121077      25  121086  121083      24
  121089  121083      24  121089  121086      25  121095  121092      24  121098
  121092      24  121098  121095      25  121104  121101      24  121107  121101
      24  121107  121104      25  121113  121110      24  121116  121110      24
  121116  121113      25  121122  121119      24  121125  121119      24  121125
  121122      25  121131  121128      24  121134  121128      24  121134  121131
      25  121140  121137      24  121143  121137      24  121143  121140      25
  121149  121146      24  121152  121146      24  121152  121149      25  121158
  121155      24  121161  121155      24  121161  121158      25  121167  121164
      24  121170  121164      24  121170  121167      25  121176  121173      24
  121179  121173      24  121179  121176      25  121185  121182      24  121188
  121182      24  121188  121185      25  121194  121191      24  121197  121191
      24  121197  121194      25  121203  121200      24  121206  121200      24
  121206  121203      25  121212  121209      24  121215  121209      24  121215
  121212      25  121221  121218      24  121224  121218      24  121224  121221
      25  121230  121227      24  121233  121227      24  121233  121230      25
  121239  121236      24  121242  121236      24  121242  121239      25  121248
  121245      24  121251  121245      24  121251  121248      25  121257  121254
      24  121260  121254      24  121260  121257      25  121266  121263      24
  121269  121263      24  121269  121266      25  121275  121272      24  121278
  121272      24  121278  121275      25  121284  121281      24  121287  121281
      24  121287  121284      25  121293  121290      24  121296  121290      24
  121296  121293      25  121302  121299      24  121305  121299      24  121305
  121302      25  121311  121308      24  121314  121308      24  121314  121311
      25  121320  121317      24  121323  121317      24  121323  121320      25
  121329  121326      24  121332  121326      24  121332  121329      25  121338
  121335      24  121341  121335      24  121341  121338      25  121347  121344
      24  121350  121344      24  121350  121347      25  121356  121353      24
  121359  121353      24  121359  121356      25  121365  121362      24  121368
  121362      24  121368  121365      25  121374  121371      24  121377  121371
      24  121377  121374      25  121383  121380      24  121386  121380      24
  121386  121383      25  121392  121389      24  121395  121389      24  121395
  121392      25  121401  121398      24  121404  121398      24  121404  121401
      25  121410  121407      24  121413  121407      24  121413  121410      25
  121419  121416      24  121422  121416      24  121422  121419      25  121428
  121425      24  121431  121425      24  121431  121428      25  121437  121434
      24  121440  121434      24  121440  121437      25  121446  121443      24
  121449  121443      24  121449  121446      25  121455  121452      24  121458
  121452      24  121458  121455      25  121464  121461      24  121467  121461
      24  121467  121464      25  121473  121470      24  121476  121470      24
  121476  121473      25  121482  121479      24  121485  121479      24  121485
  121482      25  121491  121488      24  121494  121488      24  121494  121491
      25  121500  121497      24  121503  121497      24  121503  121500      25
  121509  121506      24  121512  121506      24  121512  121509      25  121518
  121515      24  121521  121515      24  121521  121518      25  121527  121524
      24  121530  121524      24  121530  121527      25  121536  121533      24
  121539  121533      24  121539  121536      25  121545  121542      24  121548
  121542      24  121548  121545      25  121554  121551      24  121557  121551
      24  121557  121554      25  121563  121560      24  121566  121560      24
  121566  121563      25  121572  121569      24  121575  121569      24  121575
  121572      25  121581  121578      24  121584  121578      24  121584  121581
      25  121590  121587      24  121593  121587      24  121593  121590      25
  121599  121596      24  121602  121596      24  121602  121599      25  121608
  121605      24  121611  121605      24  121611  121608      25  121617  121614
      24  121620  121614      24  121620  121617      25  121626  121623      24
  121629  121623      24  121629  121626      25  121635  121632      24  121638
  121632      24  121638  121635      25  121644  121641      24  121647  121641
      24  121647  121644      25  121653  121650      24  121656  121650      24
  121656  121653      25  121662  121659      24  121665  121659      24  121665
  121662      25  121671  121668      24  121674  121668      24  121674  121671
      25  121680  121677      24  121683  121677      24  121683  121680      25
  121689  121686      24  121692  121686      24  121692  121689      25  121698
  121695      24  121701  121695      24  121701  121698      25  121707  121704
      24  121710  121704      24  121710  121707      25  121716  121713      24
  121719  121713      24  121719  121716      25  121725  121722      24  121728
  121722      24  121728  121725      25  121734  121731      24  121737  121731
      24  121737  121734      25  121743  121740      24  121746  121740      24
  121746  121743      25  121752  121749      24  121755  121749      24  121755
  121752      25  121761  121758      24  121764  121758      24  121764  121761
      25  121770  121767      24  121773  121767      24  121773  121770      25
  121779  121776      24  121782  121776      24  121782  121779      25  121788
  121785      24  121791  121785      24  121791  121788      25  121797  121794
      24  121800  121794      24  121800  121797      25  121806  121803      24
  121809  121803      24  121809  121806      25  121815  121812      24  121818
  121812      24  121818  121815      25  121824  121821      24  121827  121821
      24  121827  121824      25  121833  121830      24  121836  121830      24
  121836  121833      25  121842  121839      24  121845  121839      24  121845
  121842      25  121851  121848      24  121854  121848      24  121854  121851
      25  121860  121857      24  121863  121857      24  121863  121860      25
  121869  121866      24  121872  121866      24  121872  121869      25  121878
  121875      24  121881  121875      24  121881  121878      25  121887  121884
      24  121890  121884      24  121890  121887      25  121896  121893      24
  121899  121893      24  121899  121896      25  121905  121902      24  121908
  121902      24  121908  121905      25  121914  121911      24  121917  121911
      24  121917  121914      25  121923  121920      24  121926  121920      24
  121926  121923      25  121932  121929      24  121935  121929      24  121935
  121932      25  121941  121938      24  121944  121938      24  121944  121941
      25  121950  121947      24  121953  121947      24  121953  121950      25
  121959  121956      24  121962  121956      24  121962  121959      25  121968
  121965      24  121971  121965      24  121971  121968      25  121977  121974
      24  121980  121974      24  121980  121977      25  121986  121983      24
  121989  121983      24  121989  121986      25  121995  121992      24  121998
  121992      24  121998  121995      25  122004  122001      24  122007  122001
      24  122007  122004      25  122013  122010      24  122016  122010      24
  122016  122013      25  122022  122019      24  122025  122019      24  122025
  122022      25  122031  122028      24  122034  122028      24  122034  122031
      25  122040  122037      24  122043  122037      24  122043  122040      25
  122049  122046      24  122052  122046      24  122052  122049      25  122058
  122055      24  122061  122055      24  122061  122058      25  122067  122064
      24  122070  122064      24  122070  122067      25  122076  122073      24
  122079  122073      24  122079  122076      25  122085  122082      24  122088
  122082      24  122088  122085      25  122094  122091      24  122097  122091
      24  122097  122094      25  122103  122100      24  122106  122100      24
  122106  122103      25  122112  122109      24  122115  122109      24  122115
  122112      25  122121  122118      24  122124  122118      24  122124  122121
      25  122130  122127      24  122133  122127      24  122133  122130      25
  122139  122136      24  122142  122136      24  122142  122139      25  122148
  122145      24  122151  122145      24  122151  122148      25  122157  122154
      24  122160  122154      24  122160  122157      25  122166  122163      24
  122169  122163      24  122169  122166      25  122175  122172      24  122178
  122172      24  122178  122175      25  122184  122181      24  122187  122181
      24  122187  122184      25  122193  122190      24  122196  122190      24
  122196  122193      25  122202  122199      24  122205  122199      24  122205
  122202      25  122211  122208      24  122214  122208      24  122214  122211
      25  122220  122217      24  122223  122217      24  122223  122220      25
  122229  122226      24  122232  122226      24  122232  122229      25  122238
  122235      24  122241  122235      24  122241  122238      25  122247  122244
      24  122250  122244      24  122250  122247      25  122256  122253      24
  122259  122253      24  122259  122256      25  122265  122262      24  122268
  122262      24  122268  122265      25  122274  122271      24  122277  122271
      24  122277  122274      25  122283  122280      24  122286  122280      24
  122286  122283      25  122292  122289      24  122295  122289      24  122295
  122292      25  122301  122298      24  122304  122298      24  122304  122301
      25  122310  122307      24  122313  122307      24  122313  122310      25
  122319  122316      24  122322  122316      24  122322  122319      25  122328
  122325      24  122331  122325      24  122331  122328      25  122337  122334
      24  122340  122334      24  122340  122337      25  122346  122343      24
  122349  122343      24  122349  122346      25  122355  122352      24  122358
  122352      24  122358  122355      25  122364  122361      24  122367  122361
      24  122367  122364      25  122373  122370      24  122376  122370      24
  122376  122373      25  122382  122379      24  122385  122379      24  122385
  122382      25  122391  122388      24  122394  122388      24  122394  122391
      25  122400  122397      24  122403  122397      24  122403  122400      25
  122409  122406      24  122412  122406      24  122412  122409      25  122418
  122415      24  122421  122415      24  122421  122418      25  122427  122424
      24  122430  122424      24  122430  122427      25  122436  122433      24
  122439  122433      24  122439  122436      25  122445  122442      24  122448
  122442      24  122448  122445      25  122454  122451      24  122457  122451
      24  122457  122454      25  122463  122460      24  122466  122460      24
  122466  122463      25  122472  122469      24  122475  122469      24  122475
  122472      25  122481  122478      24  122484  122478      24  122484  122481
      25  122490  122487      24  122493  122487      24  122493  122490      25
  122499  122496      24  122502  122496      24  122502  122499      25  122508
  122505      24  122511  122505      24  122511  122508      25  122517  122514
      24  122520  122514      24  122520  122517      25  122526  122523      24
  122529  122523      24  122529  122526      25  122535  122532      24  122538
  122532      24  122538  122535      25  122544  122541      24  122547  122541
      24  122547  122544      25  122553  122550      24  122556  122550      24
  122556  122553      25  122562  122559      24  122565  122559      24  122565
  122562      25  122571  122568      24  122574  122568      24  122574  122571
      25  122580  122577      24  122583  122577      24  122583  122580      25
  122589  122586      24  122592  122586      24  122592  122589      25  122598
  122595      24  122601  122595      24  122601  122598      25  122607  122604
      24  122610  122604      24  122610  122607      25  122616  122613      24
  122619  122613      24  122619  122616      25  122625  122622      24  122628
  122622      24  122628  122625      25  122634  122631      24  122637  122631
      24  122637  122634      25  122643  122640      24  122646  122640      24
  122646  122643      25  122652  122649      24  122655  122649      24  122655
  122652      25  122661  122658      24  122664  122658      24  122664  122661
      25  122670  122667      24  122673  122667      24  122673  122670      25
  122679  122676      24  122682  122676      24  122682  122679      25  122688
  122685      24  122691  122685      24  122691  122688      25  122697  122694
      24  122700  122694      24  122700  122697      25  122706  122703      24
  122709  122703      24  122709  122706      25  122715  122712      24  122718
  122712      24  122718  122715      25  122724  122721      24  122727  122721
      24  122727  122724      25  122733  122730      24  122736  122730      24
  122736  122733      25  122742  122739      24  122745  122739      24  122745
  122742      25  122751  122748      24  122754  122748      24  122754  122751
      25  122760  122757      24  122763  122757      24  122763  122760      25
  122769  122766      24  122772  122766      24  122772  122769      25  122778
  122775      24  122781  122775      24  122781  122778      25  122787  122784
      24  122790  122784      24  122790  122787      25  122796  122793      24
  122799  122793      24  122799  122796      25  122805  122802      24  122808
  122802      24  122808  122805      25  122814  122811      24  122817  122811
      24  122817  122814      25  122823  122820      24  122826  122820      24
  122826  122823      25  122832  122829      24  122835  122829      24  122835
  122832      25  122841  122838      24  122844  122838      24  122844  122841
      25  122850  122847      24  122853  122847      24  122853  122850      25
  122859  122856      24  122862  122856      24  122862  122859      25  122868
  122865      24  122871  122865      24  122871  122868      25  122877  122874
      24  122880  122874      24  122880  122877      25  122886  122883      24
  122889  122883      24  122889  122886      25  122895  122892      24  122898
  122892      24  122898  122895      25  122904  122901      24  122907  122901
      24  122907  122904      25  122913  122910      24  122916  122910      24
  122916  122913      25  122922  122919      24  122925  122919      24  122925
  122922      25  122931  122928      24  122934  122928      24  122934  122931
      25  122940  122937      24  122943  122937      24  122943  122940      25
  122949  122946      24  122952  122946      24  122952  122949      25  122958
  122955      24  122961  122955      24  122961  122958      25  122967  122964
      24  122970  122964      24  122970  122967      25  122976  122973      24
  122979  122973      24  122979  122976      25  122985  122982      24  122988
  122982      24  122988  122985      25  122994  122991      24  122997  122991
      24  122997  122994      25  123003  123000      24  123006  123000      24
  123006  123003      25  123012  123009      24  123015  123009      24  123015
  123012      25  123021  123018      24  123024  123018      24  123024  123021
      25  123030  123027      24  123033  123027      24  123033  123030      25
  123039  123036      24  123042  123036      24  123042  123039      25  123048
  123045      24  123051  123045      24  123051  123048      25  123057  123054
      24  123060  123054      24  123060  123057      25  123066  123063      24
  123069  123063      24  123069  123066      25  123075  123072      24  123078
  123072      24  123078  123075      25  123084  123081      24  123087  123081
      24  123087  123084      25  123093  123090      24  123096  123090      24
  123096  123093      25  123102  123099      24  123105  123099      24  123105
  123102      25  123111  123108      24  123114  123108      24  123114  123111
      25  123120  123117      24  123123  123117      24  123123  123120      25
  123129  123126      24  123132  123126      24  123132  123129      25  123138
  123135      24  123141  123135      24  123141  123138      25  123147  123144
      24  123150  123144      24  123150  123147      25  123156  123153      24
  123159  123153      24  123159  123156      25  123165  123162      24  123168
  123162      24  123168  123165      25  123174  123171      24  123177  123171
      24  123177  123174      25  123183  123180      24  123186  123180      24
  123186  123183      25  123192  123189      24  123195  123189      24  123195
  123192      25  123201  123198      24  123204  123198      24  123204  123201
      25  123210  123207      24  123213  123207      24  123213  123210      25
  123219  123216      24  123222  123216      24  123222  123219      25  123228
  123225      24  123231  123225      24  123231  123228      25  123237  123234
      24  123240  123234      24  123240  123237      25  123246  123243      24
  123249  123243      24  123249  123246      25  123255  123252      24  123258
  123252      24  123258  123255      25  123264  123261      24  123267  123261
      24  123267  123264      25  123273  123270      24  123276  123270      24
  123276  123273      25  123282  123279      24  123285  123279      24  123285
  123282      25  123291  123288      24  123294  123288      24  123294  123291
      25  123300  123297      24  123303  123297      24  123303  123300      25
  123309  123306      24  123312  123306      24  123312  123309      25  123318
  123315      24  123321  123315      24  123321  123318      25  123327  123324
      24  123330  123324      24  123330  123327      25  123336  123333      24
  123339  123333      24  123339  123336      25  123345  123342      24  123348
  123342      24  123348  123345      25  123354  123351      24  123357  123351
      24  123357  123354      25  123363  123360      24  123366  123360      24
  123366  123363      25  123372  123369      24  123375  123369      24  123375
  123372      25  123381  123378      24  123384  123378      24  123384  123381
      25  123390  123387      24  123393  123387      24  123393  123390      25
  123399  123396      24  123402  123396      24  123402  123399      25  123408
  123405      24  123411  123405      24  123411  123408      25  123417  123414
      24  123420  123414      24  123420  123417      25  123426  123423      24
  123429  123423      24  123429  123426      25  123435  123432      24  123438
  123432      24  123438  123435      25  123444  123441      24  123447  123441
      24  123447  123444      25  123453  123450      24  123456  123450      24
  123456  123453      25  123462  123459      24  123465  123459      24  123465
  123462      25  123471  123468      24  123474  123468      24  123474  123471
      25  123480  123477      24  123483  123477      24  123483  123480      25
  123489  123486      24  123492  123486      24  123492  123489      25  123498
  123495      24  123501  123495      24  123501  123498      25  123507  123504
      24  123510  123504      24  123510  123507      25  123516  123513      24
  123519  123513      24  123519  123516      25  123525  123522      24  123528
  123522      24  123528  123525      25  123534  123531      24  123537  123531
      24  123537  123534      25  123543  123540      24  123546  123540      24
  123546  123543      25  123552  123549      24  123555  123549      24  123555
  123552      25  123561  123558      24  123564  123558      24  123564  123561
      25  123570  123567      24  123573  123567      24  123573  123570      25
  123579  123576      24  123582  123576      24  123582  123579      25  123588
  123585      24  123591  123585      24  123591  123588      25  123597  123594
      24  123600  123594      24  123600  123597      25  123606  123603      24
  123609  123603      24  123609  123606      25  123615  123612      24  123618
  123612      24  123618  123615      25  123624  123621      24  123627  123621
      24  123627  123624      25  123633  123630      24  123636  123630      24
  123636  123633      25  123642  123639      24  123645  123639      24  123645
  123642      25  123651  123648      24  123654  123648      24  123654  123651
      25  123660  123657      24  123663  123657      24  123663  123660      25
  123669  123666      24  123672  123666      24  123672  123669      25  123678
  123675      24  123681  123675      24  123681  123678      25  123687  123684
      24  123690  123684      24  123690  123687      25  123696  123693      24
  123699  123693      24  123699  123696      25  123705  123702      24  123708
  123702      24  123708  123705      25  123714  123711      24  123717  123711
      24  123717  123714      25  123723  123720      24  123726  123720      24
  123726  123723      25  123732  123729      24  123735  123729      24  123735
  123732      25  123741  123738      24  123744  123738      24  123744  123741
      25  123750  123747      24  123753  123747      24  123753  123750      25
  123759  123756      24  123762  123756      24  123762  123759      25  123768
  123765      24  123771  123765      24  123771  123768      25  123777  123774
      24  123780  123774      24  123780  123777      25  123786  123783      24
  123789  123783      24  123789  123786      25  123795  123792      24  123798
  123792      24  123798  123795      25  123804  123801      24  123807  123801
      24  123807  123804      25  123813  123810      24  123816  123810      24
  123816  123813      25  123822  123819      24  123825  123819      24  123825
  123822      25  123831  123828      24  123834  123828      24  123834  123831
      25  123840  123837      24  123843  123837      24  123843  123840      25
  123849  123846      24  123852  123846      24  123852  123849      25  123858
  123855      24  123861  123855      24  123861  123858      25  123867  123864
      24  123870  123864      24  123870  123867      25  123876  123873      24
  123879  123873      24  123879  123876      25  123885  123882      24  123888
  123882      24  123888  123885      25  123894  123891      24  123897  123891
      24  123897  123894      25  123903  123900      24  123906  123900      24
  123906  123903      25  123912  123909      24  123915  123909      24  123915
  123912      25  123921  123918      24  123924  123918      24  123924  123921
      25  123930  123927      24  123933  123927      24  123933  123930      25
  123939  123936      24  123942  123936      24  123942  123939      25  123948
  123945      24  123951  123945      24  123951  123948      25  123957  123954
      24  123960  123954      24  123960  123957      25  123966  123963      24
  123969  123963      24  123969  123966      25  123975  123972      24  123978
  123972      24  123978  123975      25  123984  123981      24  123987  123981
      24  123987  123984      25  123993  123990      24  123996  123990      24
  123996  123993      25  124002  123999      24  124005  123999      24  124005
  124002      25  124011  124008      24  124014  124008      24  124014  124011
      25  124020  124017      24  124023  124017      24  124023  124020      25
  124029  124026      24  124032  124026      24  124032  124029      25  124038
  124035      24  124041  124035      24  124041  124038      25  124047  124044
      24  124050  124044      24  124050  124047      25  124056  124053      24
  124059  124053      24  124059  124056      25  124065  124062      24  124068
  124062      24  124068  124065      25  124074  124071      24  124077  124071
      24  124077  124074      25  124083  124080      24  124086  124080      24
  124086  124083      25  124092  124089      24  124095  124089      24  124095
  124092      25  124101  124098      24  124104  124098      24  124104  124101
      25  124110  124107      24  124113  124107      24  124113  124110      25
  124119  124116      24  124122  124116      24  124122  124119      25  124128
  124125      24  124131  124125      24  124131  124128      25  124137  124134
      24  124140  124134      24  124140  124137      25  124146  124143      24
  124149  124143      24  124149  124146      25  124155  124152      24  124158
  124152      24  124158  124155      25  124164  124161      24  124167  124161
      24  124167  124164      25  124173  124170      24  124176  124170      24
  124176  124173      25  124182  124179      24  124185  124179      24  124185
  124182      25  124191  124188      24  124194  124188      24  124194  124191
      25  124200  124197      24  124203  124197      24  124203  124200      25
  124209  124206      24  124212  124206      24  124212  124209      25  124218
  124215      24  124221  124215      24  124221  124218      25  124227  124224
      24  124230  124224      24  124230  124227      25  124236  124233      24
  124239  124233      24  124239  124236      25  124245  124242      24  124248
  124242      24  124248  124245      25  124254  124251      24  124257  124251
      24  124257  124254      25  124263  124260      24  124266  124260      24
  124266  124263      25  124272  124269      24  124275  124269      24  124275
  124272      25  124281  124278      24  124284  124278      24  124284  124281
      25  124290  124287      24  124293  124287      24  124293  124290      25
  124299  124296      24  124302  124296      24  124302  124299      25  124308
  124305      24  124311  124305      24  124311  124308      25  124317  124314
      24  124320  124314      24  124320  124317      25  124326  124323      24
  124329  124323      24  124329  124326      25  124335  124332      24  124338
  124332      24  124338  124335      25  124344  124341      24  124347  124341
      24  124347  124344      25  124353  124350      24  124356  124350      24
  124356  124353      25  124362  124359      24  124365  124359      24  124365
  124362      25  124371  124368      24  124374  124368      24  124374  124371
      25  124380  124377      24  124383  124377      24  124383  124380      25
  124389  124386      24  124392  124386      24  124392  124389      25  124398
  124395      24  124401  124395      24  124401  124398      25  124407  124404
      24  124410  124404      24  124410  124407      25  124416  124413      24
  124419  124413      24  124419  124416      25  124425  124422      24  124428
  124422      24  124428  124425      25  124434  124431      24  124437  124431
      24  124437  124434      25  124443  124440      24  124446  124440      24
  124446  124443      25  124452  124449      24  124455  124449      24  124455
  124452      25  124461  124458      24  124464  124458      24  124464  124461
      25  124470  124467      24  124473  124467      24  124473  124470      25
  124479  124476      24  124482  124476      24  124482  124479      25  124488
  124485      24  124491  124485      24  124491  124488      25  124497  124494
      24  124500  124494      24  124500  124497      25  124506  124503      24
  124509  124503      24  124509  124506      25  124515  124512      24  124518
  124512      24  124518  124515      25  124524  124521      24  124527  124521
      24  124527  124524      25  124533  124530      24  124536  124530      24
  124536  124533      25  124542  124539      24  124545  124539      24  124545
  124542      25  124551  124548      24  124554  124548      24  124554  124551
      25  124560  124557      24  124563  124557      24  124563  124560      25
  124569  124566      24  124572  124566      24  124572  124569      25  124578
  124575      24  124581  124575      24  124581  124578      25  124587  124584
      24  124590  124584      24  124590  124587      25  124596  124593      24
  124599  124593      24  124599  124596      25  124605  124602      24  124608
  124602      24  124608  124605      25  124614  124611      24  124617  124611
      24  124617  124614      25  124623  124620      24  124626  124620      24
  124626  124623      25  124632  124629      24  124635  124629      24  124635
  124632      25  124641  124638      24  124644  124638      24  124644  124641
      25  124650  124647      24  124653  124647      24  124653  124650      25
  124659  124656      24  124662  124656      24  124662  124659      25  124668
  124665      24  124671  124665      24  124671  124668      25  124677  124674
      24  124680  124674      24  124680  124677      25  124686  124683      24
  124689  124683      24  124689  124686      25  124695  124692      24  124698
  124692      24  124698  124695      25  124704  124701      24  124707  124701
      24  124707  124704      25  124713  124710      24  124716  124710      24
  124716  124713      25  124722  124719      24  124725  124719      24  124725
  124722      25  124731  124728      24  124734  124728      24  124734  124731
      25  124740  124737      24  124743  124737      24  124743  124740      25
  124749  124746      24  124752  124746      24  124752  124749      25  124758
  124755      24  124761  124755      24  124761  124758      25  124767  124764
      24  124770  124764      24  124770  124767      25  124776  124773      24
  124779  124773      24  124779  124776      25  124785  124782      24  124788
  124782      24  124788  124785      25  124794  124791      24  124797  124791
      24  124797  124794      25  124803  124800      24  124806  124800      24
  124806  124803      25  124812  124809      24  124815  124809      24  124815
  124812      25  124821  124818      24  124824  124818      24  124824  124821
      25  124830  124827      24  124833  124827      24  124833  124830      25
  124839  124836      24  124842  124836      24  124842  124839      25  124848
  124845      24  124851  124845      24  124851  124848      25  124857  124854
      24  124860  124854      24  124860  124857      25  124866  124863      24
  124869  124863      24  124869  124866      25  124875  124872      24  124878
  124872      24  124878  124875      25  124884  124881      24  124887  124881
      24  124887  124884      25  124893  124890      24  124896  124890      24
  124896  124893      25  124902  124899      24  124905  124899      24  124905
  124902      25  124911  124908      24  124914  124908      24  124914  124911
      25  124920  124917      24  124923  124917      24  124923  124920      25
  124929  124926      24  124932  124926      24  124932  124929      25  124938
  124935      24  124941  124935      24  124941  124938      25  124947  124944
      24  124950  124944      24  124950  124947      25  124956  124953      24
  124959  124953      24  124959  124956      25  124965  124962      24  124968
  124962      24  124968  124965      25  124974  124971      24  124977  124971
      24  124977  124974      25  124983  124980      24  124986  124980      24
  124986  124983      25  124992  124989      24  124995  124989      24  124995
  124992      25  125001  124998      24  125004  124998      24  125004  125001
      25  125010  125007      24  125013  125007      24  125013  125010      25
  125019  125016      24  125022  125016      24  125022  125019      25  125028
  125025      24  125031  125025      24  125031  125028      25  125037  125034
      24  125040  125034      24  125040  125037      25  125046  125043      24
  125049  125043      24  125049  125046      25  125055  125052      24  125058
  125052      24  125058  125055      25  125064  125061      24  125067  125061
      24  125067  125064      25  125073  125070      24  125076  125070      24
  125076  125073      25  125082  125079      24  125085  125079      24  125085
  125082      25  125091  125088      24  125094  125088      24  125094  125091
      25  125100  125097      24  125103  125097      24  125103  125100      25
  125109  125106      24  125112  125106      24  125112  125109      25  125118
  125115      24  125121  125115      24  125121  125118      25  125127  125124
      24  125130  125124      24  125130  125127      25  125136  125133      24
  125139  125133      24  125139  125136      25  125145  125142      24  125148
  125142      24  125148  125145      25  125154  125151      24  125157  125151
      24  125157  125154      25  125163  125160      24  125166  125160      24
  125166  125163      25  125172  125169      24  125175  125169      24  125175
  125172      25  125181  125178      24  125184  125178      24  125184  125181
      25  125190  125187      24  125193  125187      24  125193  125190      25
  125199  125196      24  125202  125196      24  125202  125199      25  125208
  125205      24  125211  125205      24  125211  125208      25  125217  125214
      24  125220  125214      24  125220  125217      25  125226  125223      24
  125229  125223      24  125229  125226      25  125235  125232      24  125238
  125232      24  125238  125235      25  125244  125241      24  125247  125241
      24  125247  125244      25  125253  125250      24  125256  125250      24
  125256  125253      25  125262  125259      24  125265  125259      24  125265
  125262      25  125271  125268      24  125274  125268      24  125274  125271
      25  125280  125277      24  125283  125277      24  125283  125280      25
  125289  125286      24  125292  125286      24  125292  125289      25  125298
  125295      24  125301  125295      24  125301  125298      25  125307  125304
      24  125310  125304      24  125310  125307      25  125316  125313      24
  125319  125313      24  125319  125316      25  125325  125322      24  125328
  125322      24  125328  125325      25
%FLAG BONDS_WITHOUT_HYDROGEN                                                    
%FORMAT(10I8)                                                                   
      42      45       1      36      42       1      36      39       1      33
      36       1      30      33       1      27      30       1      27      45
       1      24      27       1      21      24       1      18      21       1
      15      45       1      15      18       1      12      15       1       9
      12       1       6       9       1       6      42       1       3       6
       1       0      39       1       0       3       1      78     105       4
     171     174       5     165     168       7     159     162       7     159
     165      10     156     159      11     150     153      13     147     156
      11     147     150      14     141     147      10     141     144       7
     138     165      10     138     141      10     135     138      11     132
     135      15     129     132      17     126     129      17     123     126
      17     120     171      18     120     123      19     114     270       4
     111     114      21     108     111      22     102     105      21     102
     108      22      99     102      22      99     171      23      93     111
      22      93      99      22      90      93      23      90     120      18
      87      90       5     336     339       5     330     333       7     324
     327       7     324     330      10     321     324      11     315     318
      13     312     321      11     312     315      14     306     312      10
     306     309       7     303     330      10     303     306      10     300
     303      11     297     300      15     294     297      17     291     294
      17     288     291      17     285     336      18     285     288      19
     279     435       4     276     279      21     273     276      22     267
     270      21     267     273      22     264     267      22     264     336
      23     258     276      22     258     264      22     255     258      23
     255     285      18     252     255       5     501     504       5     495
     498       7     489     492       7     489     495      10     486     489
      11     480     483      13     477     486      11     477     480      14
     471     477      10     471     474       7     468     495      10     468
     471      10     465     468      11     462     465      15     459     462
      17     456     459      17     453     456      17     450     501      18
     450     453      19     444     600       4     441     444      21     438
     441      22     432     435      21     432     438      22     429     432
      22     429     501      23     423     441      22     423     429      22
     420     423      23     420     450      18     417     420       5     666
     669       5     660     663       7     654     657       7     654     660
      10     651     654      11     645     648      13     642     651      11
     642     645      14     636     642      10     636     639       7     633
     660      10     633     636      10     630     633      11     627     630
      15     624     627      17     621     624      17     618     621      17
     615     666      18     615     618      19     609     765       4     606
     609      21     603     606      22     597     600      21     597     603
      22     594     597      22     594     666      23     588     606      22
     588     594      22     585     588      23     585     615      18     582
     585       5     831     834       5     825     828       7     819     822
       7     819     825      10     816     819      11     810     813      13
     807     816      11     807     810      14     801     807      10     801
     804       7     798     825      10     798     801      10     795     798
      11     792     795      15     789     792      17     786     789      17
     783     786      17     780     831      18     780     783      19     774
     930       4     771     774      21     768     771      22     762     765
      21     762     768      22     759     762      22     759     831      23
     753     771      22     753     759      22     750     753      23     750
     780      18     747     750       5     996     999       5     990     993
       7     984     987       7     984     990      10     981     984      11
     975     978      13     972     981      11     972     975      14     966
     972      10     966     969       7     963     990      10     963     966
      10     960     963      11     957     960      15     954     957      17
     951     954      17     948     951      17     945     996      18     945
     948      19     939    1095       4     936     939      21     933     936
      22     927     930      21     927     933      22     924     927      22
     924     996      23     918     936      22     918     924      22     915
     918      23     915     945      18     912     915       5    1161    1164
       5    1155    1158       7    1149    1152       7    1149    1155      10
    1146    1149      11    1140    1143      13    1137    1146      11    1137
    1140      14    1131    1137      10    1131    1134       7    1128    1155
      10    1128    1131      10    1125    1128      11    1122    1125      15
    1119    1122      17    1116    1119      17    1113    1116      17    1110
    1161      18    1110    1113      19    1104    1260       4    1101    1104
      21    1098    1101      22    1092    1095      21    1092    1098      22
    1089    1092      22    1089    1161      23    1083    1101      22    1083
    1089      22    1080    1083      23    1080    1110      18    1077    1080
       5    1326    1329       5    1320    1323       7    1314    1317       7
    1314    1320      10    1311    1314      11    1305    1308      13    1302
    1311      11    1302    1305      14    1296    1302      10    1296    1299
       7    1293    1320      10    1293    1296      10    1290    1293      11
    1287    1290      15    1284    1287      17    1281    1284      17    1278
    1281      17    1275    1326      18    1275    1278      19    1269    1425
       4    1266    1269      21    1263    1266      22    1257    1260      21
    1257    1263      22    1254    1257      22    1254    1326      23    1248
    1266      22    1248    1254      22    1245    1248      23    1245    1275
      18    1242    1245       5    1491    1494       5    1485    1488       7
    1479    1482       7    1479    1485      10    1476    1479      11    1470
    1473      13    1467    1476      11    1467    1470      14    1461    1467
      10    1461    1464       7    1458    1485      10    1458    1461      10
    1455    1458      11    1452    1455      15    1449    1452      17    1446
    1449      17    1443    1446      17    1440    1491      18    1440    1443
      19    1434    1590       4    1431    1434      21    1428    1431      22
    1422    1425      21    1422    1428      22    1419    1422      22    1419
    1491      23    1413    1431      22    1413    1419      22    1410    1413
      23    1410    1440      18    1407    1410       5    1656    1659       5
    1650    1653       7    1644    1647       7    1644    1650      10    1641
    1644      11    1635    1638      13    1632    1641      11    1632    1635
      14    1626    1632      10    1626    1629       7    1623    1650      10
    1623    1626      10    1620    1623      11    1617    1620      15    1614
    1617      17    1611    1614      17    1608    1611      17    1605    1656
      18    1605    1608      19    1599    1737       4    1596    1599      21
    1593    1596      22    1587    1590      21    1587    1593      22    1584
    1587      22    1584    1656      23    1578    1596      22    1578    1584
      22    1575    1578      23    1575    1605      18    1572    1575       5
    1746    1773       4    1839    1842       5    1833    1836       7    1827
    1830       7    1827    1833      10    1824    1827      11    1818    1821
      13    1815    1824      11    1815    1818      14    1809    1815      10
    1809    1812       7    1806    1833      10    1806    1809      10    1803
    1806      11    1800    1803      15    1797    1800      17    1794    1797
      17    1791    1794      17    1788    1839      18    1788    1791      19
    1782    1938       4    1779    1782      21    1776    1779      22    1770
    1773      21    1770    1776      22    1767    1770      22    1767    1839
      23    1761    1779      22    1761    1767      22    1758    1761      23
    1758    1788      18    1755    1758       5    2004    2007       5    1998
    2001       7    1992    1995       7    1992    1998      10    1989    1992
      11    1983    1986      13    1980    1989      11    1980    1983      14
    1974    1980      10    1974    1977       7    1971    1998      10    1971
    1974      10    1968    1971      11    1965    1968      15    1962    1965
      17    1959    1962      17    1956    1959      17    1953    2004      18
    1953    1956      19    1947    2103       4    1944    1947      21    1941
    1944      22    1935    1938      21    1935    1941      22    1932    1935
      22    1932    2004      23    1926    1944      22    1926    1932      22
    1923    1926      23    1923    1953      18    1920    1923       5    2169
    2172       5    2163    2166       7    2157    2160       7    2157    2163
      10    2154    2157      11    2148    2151      13    2145    2154      11
    2145    2148      14    2139    2145      10    2139    2142       7    2136
    2163      10    2136    2139      10    2133    2136      11    2130    2133
      15    2127    2130      17    2124    2127      17    2121    2124      17
    2118    2169      18    2118    2121      19    2112    2268       4    2109
    2112      21    2106    2109      22    2100    2103      21    2100    2106
      22    2097    2100      22    2097    2169      23    2091    2109      22
    2091    2097      22    2088    2091      23    2088    2118      18    2085
    2088       5    2334    2337       5    2328    2331       7    2322    2325
       7    2322    2328      10    2319    2322      11    2313    2316      13
    2310    2319      11    2310    2313      14    2304    2310      10    2304
    2307       7    2301    2328      10    2301    2304      10    2298    2301
      11    2295    2298      15    2292    2295      17    2289    2292      17
    2286    2289      17    2283    2334      18    2283    2286      19    2277
    2433       4    2274    2277      21    2271    2274      22    2265    2268
      21    2265    2271      22    2262    2265      22    2262    2334      23
    2256    2274      22    2256    2262      22    2253    2256      23    2253
    2283      18    2250    2253       5    2499    2502       5    2493    2496
       7    2487    2490       7    2487    2493      10    2484    2487      11
    2478    2481      13    2475    2484      11    2475    2478      14    2469
    2475      10    2469    2472       7    2466    2493      10    2466    2469
      10    2463    2466      11    2460    2463      15    2457    2460      17
    2454    2457      17    2451    2454      17    2448    2499      18    2448
    2451      19    2442    2598       4    2439    2442      21    2436    2439
      22    2430    2433      21    2430    2436      22    2427    2430      22
    2427    2499      23    2421    2439      22    2421    2427      22    2418
    2421      23    2418    2448      18    2415    2418       5    2664    2667
       5    2658    2661       7    2652    2655       7    2652    2658      10
    2649    2652      11    2643    2646      13    2640    2649      11    2640
    2643      14    2634    2640      10    2634    2637       7    2631    2658
      10    2631    2634      10    2628    2631      11    2625    2628      15
    2622    2625      17    2619    2622      17    2616    2619      17    2613
    2664      18    2613    2616      19    2607    2763       4    2604    2607
      21    2601    2604      22    2595    2598      21    2595    2601      22
    2592    2595      22    2592    2664      23    2586    2604      22    2586
    2592      22    2583    2586      23    2583    2613      18    2580    2583
       5    2829    2832       5    2823    2826       7    2817    2820       7
    2817    2823      10    2814    2817      11    2808    2811      13    2805
    2814      11    2805    2808      14    2799    2805      10    2799    2802
       7    2796    2823      10    2796    2799      10    2793    2796      11
    2790    2793      15    2787    2790      17    2784    2787      17    2781
    2784      17    2778    2829      18    2778    2781      19    2772    2928
       4    2769    2772      21    2766    2769      22    2760    2763      21
    2760    2766      22    2757    2760      22    2757    2829      23    2751
    2769      22    2751    2757      22    2748    2751      23    2748    2778
      18    2745    2748       5    2994    2997       5    2988    2991       7
    2982    2985       7    2982    2988      10    2979    2982      11    2973
    2976      13    2970    2979      11    2970    2973      14    2964    2970
      10    2964    2967       7    2961    2988      10    2961    2964      10
    2958    2961      11    2955    2958      15    2952    2955      17    2949
    2952      17    2946    2949      17    2943    2994      18    2943    2946
      19    2937    3093       4    2934    2937      21    2931    2934      22
    2925    2928      21    2925    2931      22    2922    2925      22    2922
    2994      23    2916    2934      22    2916    2922      22    2913    2916
      23    2913    2943      18    2910    2913       5    3159    3162       5
    3153    3156       7    3147    3150       7    3147    3153      10    3144
    3147      11    3138    3141      13    3135    3144      11    3135    3138
      14    3129    3135      10    3129    3132       7    3126    3153      10
    3126    3129      10    3123    3126      11    3120    3123      15    3117
    3120      17    3114    3117      17    3111    3114      17    3108    3159
      18    3108    3111      19    3102    3258       4    3099    3102      21
    3096    3099      22    3090    3093      21    3090    3096      22    3087
    3090      22    3087    3159      23    3081    3099      22    3081    3087
      22    3078    3081      23    3078    3108      18    3075    3078       5
    3324    3327       5    3318    3321       7    3312    3315       7    3312
    3318      10    3309    3312      11    3303    3306      13    3300    3309
      11    3300    3303      14    3294    3300      10    3294    3297       7
    3291    3318      10    3291    3294      10    3288    3291      11    3285
    3288      15    3282    3285      17    3279    3282      17    3276    3279
      17    3273    3324      18    3273    3276      19    3267    3405       4
    3264    3267      21    3261    3264      22    3255    3258      21    3255
    3261      22    3252    3255      22    3252    3324      23    3246    3264
      22    3246    3252      22    3243    3246      23    3243    3273      18
    3240    3243       5    3414    3441       4    3507    3510       5    3501
    3504       7    3495    3498       7    3495    3501      10    3492    3495
      11    3486    3489      13    3483    3492      11    3483    3486      14
    3477    3483      10    3477    3480       7    3474    3501      10    3474
    3477      10    3471    3474      11    3468    3471      15    3465    3468
      17    3462    3465      17    3459    3462      17    3456    3507      18
    3456    3459      19    3450    3606       4    3447    3450      21    3444
    3447      22    3438    3441      21    3438    3444      22    3435    3438
      22    3435    3507      23    3429    3447      22    3429    3435      22
    3426    3429      23    3426    3456      18    3423    3426       5    3672
    3675       5    3666    3669       7    3660    3663       7    3660    3666
      10    3657    3660      11    3651    3654      13    3648    3657      11
    3648    3651      14    3642    3648      10    3642    3645       7    3639
    3666      10    3639    3642      10    3636    3639      11    3633    3636
      15    3630    3633      17    3627    3630      17    3624    3627      17
    3621    3672      18    3621    3624      19    3615    3771       4    3612
    3615      21    3609    3612      22    3603    3606      21    3603    3609
      22    3600    3603      22    3600    3672      23    3594    3612      22
    3594    3600      22    3591    3594      23    3591    3621      18    3588
    3591       5    3837    3840       5    3831    3834       7    3825    3828
       7    3825    3831      10    3822    3825      11    3816    3819      13
    3813    3822      11    3813    3816      14    3807    3813      10    3807
    3810       7    3804    3831      10    3804    3807      10    3801    3804
      11    3798    3801      15    3795    3798      17    3792    3795      17
    3789    3792      17    3786    3837      18    3786    3789      19    3780
    3936       4    3777    3780      21    3774    3777      22    3768    3771
      21    3768    3774      22    3765    3768      22    3765    3837      23
    3759    3777      22    3759    3765      22    3756    3759      23    3756
    3786      18    3753    3756       5    4002    4005       5    3996    3999
       7    3990    3993       7    3990    3996      10    3987    3990      11
    3981    3984      13    3978    3987      11    3978    3981      14    3972
    3978      10    3972    3975       7    3969    3996      10    3969    3972
      10    3966    3969      11    3963    3966      15    3960    3963      17
    3957    3960      17    3954    3957      17    3951    4002      18    3951
    3954      19    3945    4101       4    3942    3945      21    3939    3942
      22    3933    3936      21    3933    3939      22    3930    3933      22
    3930    4002      23    3924    3942      22    3924    3930      22    3921
    3924      23    3921    3951      18    3918    3921       5    4167    4170
       5    4161    4164       7    4155    4158       7    4155    4161      10
    4152    4155      11    4146    4149      13    4143    4152      11    4143
    4146      14    4137    4143      10    4137    4140       7    4134    4161
      10    4134    4137      10    4131    4134      11    4128    4131      15
    4125    4128      17    4122    4125      17    4119    4122      17    4116
    4167      18    4116    4119      19    4110    4266       4    4107    4110
      21    4104    4107      22    4098    4101      21    4098    4104      22
    4095    4098      22    4095    4167      23    4089    4107      22    4089
    4095      22    4086    4089      23    4086    4116      18    4083    4086
       5    4332    4335       5    4326    4329       7    4320    4323       7
    4320    4326      10    4317    4320      11    4311    4314      13    4308
    4317      11    4308    4311      14    4302    4308      10    4302    4305
       7    4299    4326      10    4299    4302      10    4296    4299      11
    4293    4296      15    4290    4293      17    4287    4290      17    4284
    4287      17    4281    4332      18    4281    4284      19    4275    4431
       4    4272    4275      21    4269    4272      22    4263    4266      21
    4263    4269      22    4260    4263      22    4260    4332      23    4254
    4272      22    4254    4260      22    4251    4254      23    4251    4281
      18    4248    4251       5    4497    4500       5    4491    4494       7
    4485    4488       7    4485    4491      10    4482    4485      11    4476
    4479      13    4473    4482      11    4473    4476      14    4467    4473
      10    4467    4470       7    4464    4491      10    4464    4467      10
    4461    4464      11    4458    4461      15    4455    4458      17    4452
    4455      17    4449    4452      17    4446    4497      18    4446    4449
      19    4440    4596       4    4437    4440      21    4434    4437      22
    4428    4431      21    4428    4434      22    4425    4428      22    4425
    4497      23    4419    4437      22    4419    4425      22    4416    4419
      23    4416    4446      18    4413    4416       5    4662    4665       5
    4656    4659       7    4650    4653       7    4650    4656      10    4647
    4650      11    4641    4644      13    4638    4647      11    4638    4641
      14    4632    4638      10    4632    4635       7    4629    4656      10
    4629    4632      10    4626    4629      11    4623    4626      15    4620
    4623      17    4617    4620      17    4614    4617      17    4611    4662
      18    4611    4614      19    4605    4761       4    4602    4605      21
    4599    4602      22    4593    4596      21    4593    4599      22    4590
    4593      22    4590    4662      23    4584    4602      22    4584    4590
      22    4581    4584      23    4581    4611      18    4578    4581       5
    4827    4830       5    4821    4824       7    4815    4818       7    4815
    4821      10    4812    4815      11    4806    4809      13    4803    4812
      11    4803    4806      14    4797    4803      10    4797    4800       7
    4794    4821      10    4794    4797      10    4791    4794      11    4788
    4791      15    4785    4788      17    4782    4785      17    4779    4782
      17    4776    4827      18    4776    4779      19    4770    4926       4
    4767    4770      21    4764    4767      22    4758    4761      21    4758
    4764      22    4755    4758      22    4755    4827      23    4749    4767
      22    4749    4755      22    4746    4749      23    4746    4776      18
    4743    4746       5    4992    4995       5    4986    4989       7    4980
    4983       7    4980    4986      10    4977    4980      11    4971    4974
      13    4968    4977      11    4968    4971      14    4962    4968      10
    4962    4965       7    4959    4986      10    4959    4962      10    4956
    4959      11    4953    4956      15    4950    4953      17    4947    4950
      17    4944    4947      17    4941    4992      18    4941    4944      19
    4935    5073       4    4932    4935      21    4929    4932      22    4923
    4926      21    4923    4929      22    4920    4923      22    4920    4992
      23    4914    4932      22    4914    4920      22    4911    4914      23
    4911    4941      18    4908    4911       5
%FLAG ANGLES_INC_HYDROGEN                                                       
%FORMAT(10I8)                                                                   
      39       0      48       2      36      33      72       2      36      39
      75       2      33      30      69       2      30      33      72       2
      27      30      69       2      27      24      66       2      24      21
      63       2      21      24      66       2      21      18      60       2
      18      21      63       2      15      12      57       2      15      18
      60       2      12       9      54       2       9      12      57       2
       6       9      54       2       6       3      51       2       3       0
      48       2       0      39      75       2       0       3      51       2
      84      78     105       3      81      78      84       4      81      78
     105       3      78     105     180       3     231     150     234       6
     213     132     216       6     207     129     210       7     201     126
     204       7     195     123     198       6     192     114     270       3
     183     108     186       8     168     165     246       9     165     168
     249      10     165     159     240      11     165     138     219      12
     162     159     240      13     159     162     243      10     159     165
     246      12     156     159     240      16     156     147     228      18
     153     150     231      19     153     150     234      19     150     147
     228      21     150     153     237      22     147     141     222      12
     147     150     231      24     147     150     234      24     144     141
     222       9     141     138     219      12     141     147     228      12
     141     144     225      10     138     165     246      12     138     141
     222      12     135     132     213      28     135     132     216      28
     135     138     219      18     132     129     210      30     132     129
     207      30     129     132     213      31     129     132     216      31
     129     126     204      30     129     126     201      30     126     129
     210      30     126     129     207      30     126     123     195      31
     126     123     198      31     123     126     204      30     123     126
     201      30     120     123     195      37     120     123     198      37
     117      99     171      38     114     111     189      39     114     270
     345       3     111     108     186      40     111     108     183      40
     111     114     192      41     108     102     177      40     108     111
     189      40     105     102     177      39     102     105     180      41
     102     108     186      40     102     108     183      40     102      99
     117      40      99     102     177      40      96      93     111      40
      96      93      99      40      93     111     189      40      93      99
     117      40      90      93      96      38     396     315     399       6
     378     297     381       6     372     294     375       7     366     291
     369       7     360     288     363       6     357     279     435       3
     348     273     351       8     333     330     411       9     330     333
     414      10     330     324     405      11     330     303     384      12
     327     324     405      13     324     327     408      10     324     330
     411      12     321     324     405      16     321     312     393      18
     318     315     396      19     318     315     399      19     315     312
     393      21     315     318     402      22     312     306     387      12
     312     315     396      24     312     315     399      24     309     306
     387       9     306     303     384      12     306     312     393      12
     306     309     390      10     303     330     411      12     303     306
     387      12     300     297     378      28     300     297     381      28
     300     303     384      18     297     294     375      30     297     294
     372      30     294     297     378      31     294     297     381      31
     294     291     369      30     294     291     366      30     291     294
     375      30     291     294     372      30     291     288     360      31
     291     288     363      31     288     291     369      30     288     291
     366      30     285     288     360      37     285     288     363      37
     282     264     336      38     279     276     354      39     279     435
     510       3     276     273     351      40     276     273     348      40
     276     279     357      41     273     267     342      40     273     276
     354      40     270     267     342      39     267     270     345      41
     267     273     351      40     267     273     348      40     267     264
     282      40     264     267     342      40     261     258     276      40
     261     258     264      40     258     276     354      40     258     264
     282      40     255     258     261      38     561     480     564       6
     543     462     546       6     537     459     540       7     531     456
     534       7     525     453     528       6     522     444     600       3
     513     438     516       8     498     495     576       9     495     498
     579      10     495     489     570      11     495     468     549      12
     492     489     570      13     489     492     573      10     489     495
     576      12     486     489     570      16     486     477     558      18
     483     480     561      19     483     480     564      19     480     477
     558      21     480     483     567      22     477     471     552      12
     477     480     561      24     477     480     564      24     474     471
     552       9     471     468     549      12     471     477     558      12
     471     474     555      10     468     495     576      12     468     471
     552      12     465     462     543      28     465     462     546      28
     465     468     549      18     462     459     540      30     462     459
     537      30     459     462     543      31     459     462     546      31
     459     456     534      30     459     456     531      30     456     459
     540      30     456     459     537      30     456     453     525      31
     456     453     528      31     453     456     534      30     453     456
     531      30     450     453     525      37     450     453     528      37
     447     429     501      38     444     441     519      39     444     600
     675       3     441     438     516      40     441     438     513      40
     441     444     522      41     438     432     507      40     438     441
     519      40     435     432     507      39     432     435     510      41
     432     438     516      40     432     438     513      40     432     429
     447      40     429     432     507      40     426     423     441      40
     426     423     429      40     423     441     519      40     423     429
     447      40     420     423     426      38     726     645     729       6
     708     627     711       6     702     624     705       7     696     621
     699       7     690     618     693       6     687     609     765       3
     678     603     681       8     663     660     741       9     660     663
     744      10     660     654     735      11     660     633     714      12
     657     654     735      13     654     657     738      10     654     660
     741      12     651     654     735      16     651     642     723      18
     648     645     726      19     648     645     729      19     645     642
     723      21     645     648     732      22     642     636     717      12
     642     645     726      24     642     645     729      24     639     636
     717       9     636     633     714      12     636     642     723      12
     636     639     720      10     633     660     741      12     633     636
     717      12     630     627     708      28     630     627     711      28
     630     633     714      18     627     624     705      30     627     624
     702      30     624     627     708      31     624     627     711      31
     624     621     699      30     624     621     696      30     621     624
     705      30     621     624     702      30     621     618     690      31
     621     618     693      31     618     621     699      30     618     621
     696      30     615     618     690      37     615     618     693      37
     612     594     666      38     609     606     684      39     609     765
     840       3     606     603     681      40     606     603     678      40
     606     609     687      41     603     597     672      40     603     606
     684      40     600     597     672      39     597     600     675      41
     597     603     681      40     597     603     678      40     597     594
     612      40     594     597     672      40     591     588     606      40
     591     588     594      40     588     606     684      40     588     594
     612      40     585     588     591      38     891     810     894       6
     873     792     876       6     867     789     870       7     861     786
     864       7     855     783     858       6     852     774     930       3
     843     768     846       8     828     825     906       9     825     828
     909      10     825     819     900      11     825     798     879      12
     822     819     900      13     819     822     903      10     819     825
     906      12     816     819     900      16     816     807     888      18
     813     810     891      19     813     810     894      19     810     807
     888      21     810     813     897      22     807     801     882      12
     807     810     891      24     807     810     894      24     804     801
     882       9     801     798     879      12     801     807     888      12
     801     804     885      10     798     825     906      12     798     801
     882      12     795     792     873      28     795     792     876      28
     795     798     879      18     792     789     870      30     792     789
     867      30     789     792     873      31     789     792     876      31
     789     786     864      30     789     786     861      30     786     789
     870      30     786     789     867      30     786     783     855      31
     786     783     858      31     783     786     864      30     783     786
     861      30     780     783     855      37     780     783     858      37
     777     759     831      38     774     771     849      39     774     930
    1005       3     771     768     846      40     771     768     843      40
     771     774     852      41     768     762     837      40     768     771
     849      40     765     762     837      39     762     765     840      41
     762     768     846      40     762     768     843      40     762     759
     777      40     759     762     837      40     756     753     771      40
     756     753     759      40     753     771     849      40     753     759
     777      40     750     753     756      38    1056     975    1059       6
    1038     957    1041       6    1032     954    1035       7    1026     951
    1029       7    1020     948    1023       6    1017     939    1095       3
    1008     933    1011       8     993     990    1071       9     990     993
    1074      10     990     984    1065      11     990     963    1044      12
     987     984    1065      13     984     987    1068      10     984     990
    1071      12     981     984    1065      16     981     972    1053      18
     978     975    1056      19     978     975    1059      19     975     972
    1053      21     975     978    1062      22     972     966    1047      12
     972     975    1056      24     972     975    1059      24     969     966
    1047       9     966     963    1044      12     966     972    1053      12
     966     969    1050      10     963     990    1071      12     963     966
    1047      12     960     957    1038      28     960     957    1041      28
     960     963    1044      18     957     954    1035      30     957     954
    1032      30     954     957    1038      31     954     957    1041      31
     954     951    1029      30     954     951    1026      30     951     954
    1035      30     951     954    1032      30     951     948    1020      31
     951     948    1023      31     948     951    1029      30     948     951
    1026      30     945     948    1020      37     945     948    1023      37
     942     924     996      38     939     936    1014      39     939    1095
    1170       3     936     933    1011      40     936     933    1008      40
     936     939    1017      41     933     927    1002      40     933     936
    1014      40     930     927    1002      39     927     930    1005      41
     927     933    1011      40     927     933    1008      40     927     924
     942      40     924     927    1002      40     921     918     936      40
     921     918     924      40     918     936    1014      40     918     924
     942      40     915     918     921      38    1221    1140    1224       6
    1203    1122    1206       6    1197    1119    1200       7    1191    1116
    1194       7    1185    1113    1188       6    1182    1104    1260       3
    1173    1098    1176       8    1158    1155    1236       9    1155    1158
    1239      10    1155    1149    1230      11    1155    1128    1209      12
    1152    1149    1230      13    1149    1152    1233      10    1149    1155
    1236      12    1146    1149    1230      16    1146    1137    1218      18
    1143    1140    1221      19    1143    1140    1224      19    1140    1137
    1218      21    1140    1143    1227      22    1137    1131    1212      12
    1137    1140    1221      24    1137    1140    1224      24    1134    1131
    1212       9    1131    1128    1209      12    1131    1137    1218      12
    1131    1134    1215      10    1128    1155    1236      12    1128    1131
    1212      12    1125    1122    1203      28    1125    1122    1206      28
    1125    1128    1209      18    1122    1119    1200      30    1122    1119
    1197      30    1119    1122    1203      31    1119    1122    1206      31
    1119    1116    1194      30    1119    1116    1191      30    1116    1119
    1200      30    1116    1119    1197      30    1116    1113    1185      31
    1116    1113    1188      31    1113    1116    1194      30    1113    1116
    1191      30    1110    1113    1185      37    1110    1113    1188      37
    1107    1089    1161      38    1104    1101    1179      39    1104    1260
    1335       3    1101    1098    1176      40    1101    1098    1173      40
    1101    1104    1182      41    1098    1092    1167      40    1098    1101
    1179      40    1095    1092    1167      39    1092    1095    1170      41
    1092    1098    1176      40    1092    1098    1173      40    1092    1089
    1107      40    1089    1092    1167      40    1086    1083    1101      40
    1086    1083    1089      40    1083    1101    1179      40    1083    1089
    1107      40    1080    1083    1086      38    1386    1305    1389       6
    1368    1287    1371       6    1362    1284    1365       7    1356    1281
    1359       7    1350    1278    1353       6    1347    1269    1425       3
    1338    1263    1341       8    1323    1320    1401       9    1320    1323
    1404      10    1320    1314    1395      11    1320    1293    1374      12
    1317    1314    1395      13    1314    1317    1398      10    1314    1320
    1401      12    1311    1314    1395      16    1311    1302    1383      18
    1308    1305    1386      19    1308    1305    1389      19    1305    1302
    1383      21    1305    1308    1392      22    1302    1296    1377      12
    1302    1305    1386      24    1302    1305    1389      24    1299    1296
    1377       9    1296    1293    1374      12    1296    1302    1383      12
    1296    1299    1380      10    1293    1320    1401      12    1293    1296
    1377      12    1290    1287    1368      28    1290    1287    1371      28
    1290    1293    1374      18    1287    1284    1365      30    1287    1284
    1362      30    1284    1287    1368      31    1284    1287    1371      31
    1284    1281    1359      30    1284    1281    1356      30    1281    1284
    1365      30    1281    1284    1362      30    1281    1278    1350      31
    1281    1278    1353      31    1278    1281    1359      30    1278    1281
    1356      30    1275    1278    1350      37    1275    1278    1353      37
    1272    1254    1326      38    1269    1266    1344      39    1269    1425
    1500       3    1266    1263    1341      40    1266    1263    1338      40
    1266    1269    1347      41    1263    1257    1332      40    1263    1266
    1344      40    1260    1257    1332      39    1257    1260    1335      41
    1257    1263    1341      40    1257    1263    1338      40    1257    1254
    1272      40    1254    1257    1332      40    1251    1248    1266      40
    1251    1248    1254      40    1248    1266    1344      40    1248    1254
    1272      40    1245    1248    1251      38    1551    1470    1554       6
    1533    1452    1536       6    1527    1449    1530       7    1521    1446
    1524       7    1515    1443    1518       6    1512    1434    1590       3
    1503    1428    1506       8    1488    1485    1566       9    1485    1488
    1569      10    1485    1479    1560      11    1485    1458    1539      12
    1482    1479    1560      13    1479    1482    1563      10    1479    1485
    1566      12    1476    1479    1560      16    1476    1467    1548      18
    1473    1470    1551      19    1473    1470    1554      19    1470    1467
    1548      21    1470    1473    1557      22    1467    1461    1542      12
    1467    1470    1551      24    1467    1470    1554      24    1464    1461
    1542       9    1461    1458    1539      12    1461    1467    1548      12
    1461    1464    1545      10    1458    1485    1566      12    1458    1461
    1542      12    1455    1452    1533      28    1455    1452    1536      28
    1455    1458    1539      18    1452    1449    1530      30    1452    1449
    1527      30    1449    1452    1533      31    1449    1452    1536      31
    1449    1446    1524      30    1449    1446    1521      30    1446    1449
    1530      30    1446    1449    1527      30    1446    1443    1515      31
    1446    1443    1518      31    1443    1446    1524      30    1443    1446
    1521      30    1440    1443    1515      37    1440    1443    1518      37
    1437    1419    1491      38    1434    1431    1509      39    1434    1590
    1665       3    1431    1428    1506      40    1431    1428    1503      40
    1431    1434    1512      41    1428    1422    1497      40    1428    1431
    1509      40    1425    1422    1497      39    1422    1425    1500      41
    1422    1428    1506      40    1422    1428    1503      40    1422    1419
    1437      40    1419    1422    1497      40    1416    1413    1431      40
    1416    1413    1419      40    1413    1431    1509      40    1413    1419
    1437      40    1410    1413    1416      38    1716    1635    1719       6
    1698    1617    1701       6    1692    1614    1695       7    1686    1611
    1689       7    1680    1608    1683       6    1677    1599    1737       3
    1668    1593    1671       8    1653    1650    1731       9    1650    1653
    1734      10    1650    1644    1725      11    1650    1623    1704      12
    1647    1644    1725      13    1644    1647    1728      10    1644    1650
    1731      12    1641    1644    1725      16    1641    1632    1713      18
    1638    1635    1716      19    1638    1635    1719      19    1635    1632
    1713      21    1635    1638    1722      22    1632    1626    1707      12
    1632    1635    1716      24    1632    1635    1719      24    1629    1626
    1707       9    1626    1623    1704      12    1626    1632    1713      12
    1626    1629    1710      10    1623    1650    1731      12    1623    1626
    1707      12    1620    1617    1698      28    1620    1617    1701      28
    1620    1623    1704      18    1617    1614    1695      30    1617    1614
    1692      30    1614    1617    1698      31    1614    1617    1701      31
    1614    1611    1689      30    1614    1611    1686      30    1611    1614
    1695      30    1611    1614    1692      30    1611    1608    1680      31
    1611    1608    1683      31    1608    1611    1689      30    1608    1611
    1686      30    1605    1608    1680      37    1605    1608    1683      37
    1602    1584    1656      38    1599    1596    1674      39    1599    1737
    1740       3    1599    1737    1743       3    1596    1593    1671      40
    1596    1593    1668      40    1596    1599    1677      41    1593    1587
    1662      40    1593    1596    1674      40    1590    1587    1662      39
    1587    1590    1665      41    1587    1593    1671      40    1587    1593
    1668      40    1587    1584    1602      40    1584    1587    1662      40
    1581    1578    1596      40    1581    1578    1584      40    1578    1596
    1674      40    1578    1584    1602      40    1575    1578    1581      38
    1740    1737    1743       4    1752    1746    1773       3    1749    1746
    1752       4    1749    1746    1773       3    1746    1773    1848       3
    1899    1818    1902       6    1881    1800    1884       6    1875    1797
    1878       7    1869    1794    1872       7    1863    1791    1866       6
    1860    1782    1938       3    1851    1776    1854       8    1836    1833
    1914       9    1833    1836    1917      10    1833    1827    1908      11
    1833    1806    1887      12    1830    1827    1908      13    1827    1830
    1911      10    1827    1833    1914      12    1824    1827    1908      16
    1824    1815    1896      18    1821    1818    1899      19    1821    1818
    1902      19    1818    1815    1896      21    1818    1821    1905      22
    1815    1809    1890      12    1815    1818    1899      24    1815    1818
    1902      24    1812    1809    1890       9    1809    1806    1887      12
    1809    1815    1896      12    1809    1812    1893      10    1806    1833
    1914      12    1806    1809    1890      12    1803    1800    1881      28
    1803    1800    1884      28    1803    1806    1887      18    1800    1797
    1878      30    1800    1797    1875      30    1797    1800    1881      31
    1797    1800    1884      31    1797    1794    1872      30    1797    1794
    1869      30    1794    1797    1878      30    1794    1797    1875      30
    1794    1791    1863      31    1794    1791    1866      31    1791    1794
    1872      30    1791    1794    1869      30    1788    1791    1863      37
    1788    1791    1866      37    1785    1767    1839      38    1782    1779
    1857      39    1782    1938    2013       3    1779    1776    1854      40
    1779    1776    1851      40    1779    1782    1860      41    1776    1770
    1845      40    1776    1779    1857      40    1773    1770    1845      39
    1770    1773    1848      41    1770    1776    1854      40    1770    1776
    1851      40    1770    1767    1785      40    1767    1770    1845      40
    1764    1761    1779      40    1764    1761    1767      40    1761    1779
    1857      40    1761    1767    1785      40    1758    1761    1764      38
    2064    1983    2067       6    2046    1965    2049       6    2040    1962
    2043       7    2034    1959    2037       7    2028    1956    2031       6
    2025    1947    2103       3    2016    1941    2019       8    2001    1998
    2079       9    1998    2001    2082      10    1998    1992    2073      11
    1998    1971    2052      12    1995    1992    2073      13    1992    1995
    2076      10    1992    1998    2079      12    1989    1992    2073      16
    1989    1980    2061      18    1986    1983    2064      19    1986    1983
    2067      19    1983    1980    2061      21    1983    1986    2070      22
    1980    1974    2055      12    1980    1983    2064      24    1980    1983
    2067      24    1977    1974    2055       9    1974    1971    2052      12
    1974    1980    2061      12    1974    1977    2058      10    1971    1998
    2079      12    1971    1974    2055      12    1968    1965    2046      28
    1968    1965    2049      28    1968    1971    2052      18    1965    1962
    2043      30    1965    1962    2040      30    1962    1965    2046      31
    1962    1965    2049      31    1962    1959    2037      30    1962    1959
    2034      30    1959    1962    2043      30    1959    1962    2040      30
    1959    1956    2028      31    1959    1956    2031      31    1956    1959
    2037      30    1956    1959    2034      30    1953    1956    2028      37
    1953    1956    2031      37    1950    1932    2004      38    1947    1944
    2022      39    1947    2103    2178       3    1944    1941    2019      40
    1944    1941    2016      40    1944    1947    2025      41    1941    1935
    2010      40    1941    1944    2022      40    1938    1935    2010      39
    1935    1938    2013      41    1935    1941    2019      40    1935    1941
    2016      40    1935    1932    1950      40    1932    1935    2010      40
    1929    1926    1944      40    1929    1926    1932      40    1926    1944
    2022      40    1926    1932    1950      40    1923    1926    1929      38
    2229    2148    2232       6    2211    2130    2214       6    2205    2127
    2208       7    2199    2124    2202       7    2193    2121    2196       6
    2190    2112    2268       3    2181    2106    2184       8    2166    2163
    2244       9    2163    2166    2247      10    2163    2157    2238      11
    2163    2136    2217      12    2160    2157    2238      13    2157    2160
    2241      10    2157    2163    2244      12    2154    2157    2238      16
    2154    2145    2226      18    2151    2148    2229      19    2151    2148
    2232      19    2148    2145    2226      21    2148    2151    2235      22
    2145    2139    2220      12    2145    2148    2229      24    2145    2148
    2232      24    2142    2139    2220       9    2139    2136    2217      12
    2139    2145    2226      12    2139    2142    2223      10    2136    2163
    2244      12    2136    2139    2220      12    2133    2130    2211      28
    2133    2130    2214      28    2133    2136    2217      18    2130    2127
    2208      30    2130    2127    2205      30    2127    2130    2211      31
    2127    2130    2214      31    2127    2124    2202      30    2127    2124
    2199      30    2124    2127    2208      30    2124    2127    2205      30
    2124    2121    2193      31    2124    2121    2196      31    2121    2124
    2202      30    2121    2124    2199      30    2118    2121    2193      37
    2118    2121    2196      37    2115    2097    2169      38    2112    2109
    2187      39    2112    2268    2343       3    2109    2106    2184      40
    2109    2106    2181      40    2109    2112    2190      41    2106    2100
    2175      40    2106    2109    2187      40    2103    2100    2175      39
    2100    2103    2178      41    2100    2106    2184      40    2100    2106
    2181      40    2100    2097    2115      40    2097    2100    2175      40
    2094    2091    2109      40    2094    2091    2097      40    2091    2109
    2187      40    2091    2097    2115      40    2088    2091    2094      38
    2394    2313    2397       6    2376    2295    2379       6    2370    2292
    2373       7    2364    2289    2367       7    2358    2286    2361       6
    2355    2277    2433       3    2346    2271    2349       8    2331    2328
    2409       9    2328    2331    2412      10    2328    2322    2403      11
    2328    2301    2382      12    2325    2322    2403      13    2322    2325
    2406      10    2322    2328    2409      12    2319    2322    2403      16
    2319    2310    2391      18    2316    2313    2394      19    2316    2313
    2397      19    2313    2310    2391      21    2313    2316    2400      22
    2310    2304    2385      12    2310    2313    2394      24    2310    2313
    2397      24    2307    2304    2385       9    2304    2301    2382      12
    2304    2310    2391      12    2304    2307    2388      10    2301    2328
    2409      12    2301    2304    2385      12    2298    2295    2376      28
    2298    2295    2379      28    2298    2301    2382      18    2295    2292
    2373      30    2295    2292    2370      30    2292    2295    2376      31
    2292    2295    2379      31    2292    2289    2367      30    2292    2289
    2364      30    2289    2292    2373      30    2289    2292    2370      30
    2289    2286    2358      31    2289    2286    2361      31    2286    2289
    2367      30    2286    2289    2364      30    2283    2286    2358      37
    2283    2286    2361      37    2280    2262    2334      38    2277    2274
    2352      39    2277    2433    2508       3    2274    2271    2349      40
    2274    2271    2346      40    2274    2277    2355      41    2271    2265
    2340      40    2271    2274    2352      40    2268    2265    2340      39
    2265    2268    2343      41    2265    2271    2349      40    2265    2271
    2346      40    2265    2262    2280      40    2262    2265    2340      40
    2259    2256    2274      40    2259    2256    2262      40    2256    2274
    2352      40    2256    2262    2280      40    2253    2256    2259      38
    2559    2478    2562       6    2541    2460    2544       6    2535    2457
    2538       7    2529    2454    2532       7    2523    2451    2526       6
    2520    2442    2598       3    2511    2436    2514       8    2496    2493
    2574       9    2493    2496    2577      10    2493    2487    2568      11
    2493    2466    2547      12    2490    2487    2568      13    2487    2490
    2571      10    2487    2493    2574      12    2484    2487    2568      16
    2484    2475    2556      18    2481    2478    2559      19    2481    2478
    2562      19    2478    2475    2556      21    2478    2481    2565      22
    2475    2469    2550      12    2475    2478    2559      24    2475    2478
    2562      24    2472    2469    2550       9    2469    2466    2547      12
    2469    2475    2556      12    2469    2472    2553      10    2466    2493
    2574      12    2466    2469    2550      12    2463    2460    2541      28
    2463    2460    2544      28    2463    2466    2547      18    2460    2457
    2538      30    2460    2457    2535      30    2457    2460    2541      31
    2457    2460    2544      31    2457    2454    2532      30    2457    2454
    2529      30    2454    2457    2538      30    2454    2457    2535      30
    2454    2451    2523      31    2454    2451    2526      31    2451    2454
    2532      30    2451    2454    2529      30    2448    2451    2523      37
    2448    2451    2526      37    2445    2427    2499      38    2442    2439
    2517      39    2442    2598    2673       3    2439    2436    2514      40
    2439    2436    2511      40    2439    2442    2520      41    2436    2430
    2505      40    2436    2439    2517      40    2433    2430    2505      39
    2430    2433    2508      41    2430    2436    2514      40    2430    2436
    2511      40    2430    2427    2445      40    2427    2430    2505      40
    2424    2421    2439      40    2424    2421    2427      40    2421    2439
    2517      40    2421    2427    2445      40    2418    2421    2424      38
    2724    2643    2727       6    2706    2625    2709       6    2700    2622
    2703       7    2694    2619    2697       7    2688    2616    2691       6
    2685    2607    2763       3    2676    2601    2679       8    2661    2658
    2739       9    2658    2661    2742      10    2658    2652    2733      11
    2658    2631    2712      12    2655    2652    2733      13    2652    2655
    2736      10    2652    2658    2739      12    2649    2652    2733      16
    2649    2640    2721      18    2646    2643    2724      19    2646    2643
    2727      19    2643    2640    2721      21    2643    2646    2730      22
    2640    2634    2715      12    2640    2643    2724      24    2640    2643
    2727      24    2637    2634    2715       9    2634    2631    2712      12
    2634    2640    2721      12    2634    2637    2718      10    2631    2658
    2739      12    2631    2634    2715      12    2628    2625    2706      28
    2628    2625    2709      28    2628    2631    2712      18    2625    2622
    2703      30    2625    2622    2700      30    2622    2625    2706      31
    2622    2625    2709      31    2622    2619    2697      30    2622    2619
    2694      30    2619    2622    2703      30    2619    2622    2700      30
    2619    2616    2688      31    2619    2616    2691      31    2616    2619
    2697      30    2616    2619    2694      30    2613    2616    2688      37
    2613    2616    2691      37    2610    2592    2664      38    2607    2604
    2682      39    2607    2763    2838       3    2604    2601    2679      40
    2604    2601    2676      40    2604    2607    2685      41    2601    2595
    2670      40    2601    2604    2682      40    2598    2595    2670      39
    2595    2598    2673      41    2595    2601    2679      40    2595    2601
    2676      40    2595    2592    2610      40    2592    2595    2670      40
    2589    2586    2604      40    2589    2586    2592      40    2586    2604
    2682      40    2586    2592    2610      40    2583    2586    2589      38
    2889    2808    2892       6    2871    2790    2874       6    2865    2787
    2868       7    2859    2784    2862       7    2853    2781    2856       6
    2850    2772    2928       3    2841    2766    2844       8    2826    2823
    2904       9    2823    2826    2907      10    2823    2817    2898      11
    2823    2796    2877      12    2820    2817    2898      13    2817    2820
    2901      10    2817    2823    2904      12    2814    2817    2898      16
    2814    2805    2886      18    2811    2808    2889      19    2811    2808
    2892      19    2808    2805    2886      21    2808    2811    2895      22
    2805    2799    2880      12    2805    2808    2889      24    2805    2808
    2892      24    2802    2799    2880       9    2799    2796    2877      12
    2799    2805    2886      12    2799    2802    2883      10    2796    2823
    2904      12    2796    2799    2880      12    2793    2790    2871      28
    2793    2790    2874      28    2793    2796    2877      18    2790    2787
    2868      30    2790    2787    2865      30    2787    2790    2871      31
    2787    2790    2874      31    2787    2784    2862      30    2787    2784
    2859      30    2784    2787    2868      30    2784    2787    2865      30
    2784    2781    2853      31    2784    2781    2856      31    2781    2784
    2862      30    2781    2784    2859      30    2778    2781    2853      37
    2778    2781    2856      37    2775    2757    2829      38    2772    2769
    2847      39    2772    2928    3003       3    2769    2766    2844      40
    2769    2766    2841      40    2769    2772    2850      41    2766    2760
    2835      40    2766    2769    2847      40    2763    2760    2835      39
    2760    2763    2838      41    2760    2766    2844      40    2760    2766
    2841      40    2760    2757    2775      40    2757    2760    2835      40
    2754    2751    2769      40    2754    2751    2757      40    2751    2769
    2847      40    2751    2757    2775      40    2748    2751    2754      38
    3054    2973    3057       6    3036    2955    3039       6    3030    2952
    3033       7    3024    2949    3027       7    3018    2946    3021       6
    3015    2937    3093       3    3006    2931    3009       8    2991    2988
    3069       9    2988    2991    3072      10    2988    2982    3063      11
    2988    2961    3042      12    2985    2982    3063      13    2982    2985
    3066      10    2982    2988    3069      12    2979    2982    3063      16
    2979    2970    3051      18    2976    2973    3054      19    2976    2973
    3057      19    2973    2970    3051      21    2973    2976    3060      22
    2970    2964    3045      12    2970    2973    3054      24    2970    2973
    3057      24    2967    2964    3045       9    2964    2961    3042      12
    2964    2970    3051      12    2964    2967    3048      10    2961    2988
    3069      12    2961    2964    3045      12    2958    2955    3036      28
    2958    2955    3039      28    2958    2961    3042      18    2955    2952
    3033      30    2955    2952    3030      30    2952    2955    3036      31
    2952    2955    3039      31    2952    2949    3027      30    2952    2949
    3024      30    2949    2952    3033      30    2949    2952    3030      30
    2949    2946    3018      31    2949    2946    3021      31    2946    2949
    3027      30    2946    2949    3024      30    2943    2946    3018      37
    2943    2946    3021      37    2940    2922    2994      38    2937    2934
    3012      39    2937    3093    3168       3    2934    2931    3009      40
    2934    2931    3006      40    2934    2937    3015      41    2931    2925
    3000      40    2931    2934    3012      40    2928    2925    3000      39
    2925    2928    3003      41    2925    2931    3009      40    2925    2931
    3006      40    2925    2922    2940      40    2922    2925    3000      40
    2919    2916    2934      40    2919    2916    2922      40    2916    2934
    3012      40    2916    2922    2940      40    2913    2916    2919      38
    3219    3138    3222       6    3201    3120    3204       6    3195    3117
    3198       7    3189    3114    3192       7    3183    3111    3186       6
    3180    3102    3258       3    3171    3096    3174       8    3156    3153
    3234       9    3153    3156    3237      10    3153    3147    3228      11
    3153    3126    3207      12    3150    3147    3228      13    3147    3150
    3231      10    3147    3153    3234      12    3144    3147    3228      16
    3144    3135    3216      18    3141    3138    3219      19    3141    3138
    3222      19    3138    3135    3216      21    3138    3141    3225      22
    3135    3129    3210      12    3135    3138    3219      24    3135    3138
    3222      24    3132    3129    3210       9    3129    3126    3207      12
    3129    3135    3216      12    3129    3132    3213      10    3126    3153
    3234      12    3126    3129    3210      12    3123    3120    3201      28
    3123    3120    3204      28    3123    3126    3207      18    3120    3117
    3198      30    3120    3117    3195      30    3117    3120    3201      31
    3117    3120    3204      31    3117    3114    3192      30    3117    3114
    3189      30    3114    3117    3198      30    3114    3117    3195      30
    3114    3111    3183      31    3114    3111    3186      31    3111    3114
    3192      30    3111    3114    3189      30    3108    3111    3183      37
    3108    3111    3186      37    3105    3087    3159      38    3102    3099
    3177      39    3102    3258    3333       3    3099    3096    3174      40
    3099    3096    3171      40    3099    3102    3180      41    3096    3090
    3165      40    3096    3099    3177      40    3093    3090    3165      39
    3090    3093    3168      41    3090    3096    3174      40    3090    3096
    3171      40    3090    3087    3105      40    3087    3090    3165      40
    3084    3081    3099      40    3084    3081    3087      40    3081    3099
    3177      40    3081    3087    3105      40    3078    3081    3084      38
    3384    3303    3387       6    3366    3285    3369       6    3360    3282
    3363       7    3354    3279    3357       7    3348    3276    3351       6
    3345    3267    3405       3    3336    3261    3339       8    3321    3318
    3399       9    3318    3321    3402      10    3318    3312    3393      11
    3318    3291    3372      12    3315    3312    3393      13    3312    3315
    3396      10    3312    3318    3399      12    3309    3312    3393      16
    3309    3300    3381      18    3306    3303    3384      19    3306    3303
    3387      19    3303    3300    3381      21    3303    3306    3390      22
    3300    3294    3375      12    3300    3303    3384      24    3300    3303
    3387      24    3297    3294    3375       9    3294    3291    3372      12
    3294    3300    3381      12    3294    3297    3378      10    3291    3318
    3399      12    3291    3294    3375      12    3288    3285    3366      28
    3288    3285    3369      28    3288    3291    3372      18    3285    3282
    3363      30    3285    3282    3360      30    3282    3285    3366      31
    3282    3285    3369      31    3282    3279    3357      30    3282    3279
    3354      30    3279    3282    3363      30    3279    3282    3360      30
    3279    3276    3348      31    3279    3276    3351      31    3276    3279
    3357      30    3276    3279    3354      30    3273    3276    3348      37
    3273    3276    3351      37    3270    3252    3324      38    3267    3264
    3342      39    3267    3405    3408       3    3267    3405    3411       3
    3264    3261    3339      40    3264    3261    3336      40    3264    3267
    3345      41    3261    3255    3330      40    3261    3264    3342      40
    3258    3255    3330      39    3255    3258    3333      41    3255    3261
    3339      40    3255    3261    3336      40    3255    3252    3270      40
    3252    3255    3330      40    3249    3246    3264      40    3249    3246
    3252      40    3246    3264    3342      40    3246    3252    3270      40
    3243    3246    3249      38    3408    3405    3411       4    3420    3414
    3441       3    3417    3414    3420       4    3417    3414    3441       3
    3414    3441    3516       3    3567    3486    3570       6    3549    3468
    3552       6    3543    3465    3546       7    3537    3462    3540       7
    3531    3459    3534       6    3528    3450    3606       3    3519    3444
    3522       8    3504    3501    3582       9    3501    3504    3585      10
    3501    3495    3576      11    3501    3474    3555      12    3498    3495
    3576      13    3495    3498    3579      10    3495    3501    3582      12
    3492    3495    3576      16    3492    3483    3564      18    3489    3486
    3567      19    3489    3486    3570      19    3486    3483    3564      21
    3486    3489    3573      22    3483    3477    3558      12    3483    3486
    3567      24    3483    3486    3570      24    3480    3477    3558       9
    3477    3474    3555      12    3477    3483    3564      12    3477    3480
    3561      10    3474    3501    3582      12    3474    3477    3558      12
    3471    3468    3549      28    3471    3468    3552      28    3471    3474
    3555      18    3468    3465    3546      30    3468    3465    3543      30
    3465    3468    3549      31    3465    3468    3552      31    3465    3462
    3540      30    3465    3462    3537      30    3462    3465    3546      30
    3462    3465    3543      30    3462    3459    3531      31    3462    3459
    3534      31    3459    3462    3540      30    3459    3462    3537      30
    3456    3459    3531      37    3456    3459    3534      37    3453    3435
    3507      38    3450    3447    3525      39    3450    3606    3681       3
    3447    3444    3522      40    3447    3444    3519      40    3447    3450
    3528      41    3444    3438    3513      40    3444    3447    3525      40
    3441    3438    3513      39    3438    3441    3516      41    3438    3444
    3522      40    3438    3444    3519      40    3438    3435    3453      40
    3435    3438    3513      40    3432    3429    3447      40    3432    3429
    3435      40    3429    3447    3525      40    3429    3435    3453      40
    3426    3429    3432      38    3732    3651    3735       6    3714    3633
    3717       6    3708    3630    3711       7    3702    3627    3705       7
    3696    3624    3699       6    3693    3615    3771       3    3684    3609
    3687       8    3669    3666    3747       9    3666    3669    3750      10
    3666    3660    3741      11    3666    3639    3720      12    3663    3660
    3741      13    3660    3663    3744      10    3660    3666    3747      12
    3657    3660    3741      16    3657    3648    3729      18    3654    3651
    3732      19    3654    3651    3735      19    3651    3648    3729      21
    3651    3654    3738      22    3648    3642    3723      12    3648    3651
    3732      24    3648    3651    3735      24    3645    3642    3723       9
    3642    3639    3720      12    3642    3648    3729      12    3642    3645
    3726      10    3639    3666    3747      12    3639    3642    3723      12
    3636    3633    3714      28    3636    3633    3717      28    3636    3639
    3720      18    3633    3630    3711      30    3633    3630    3708      30
    3630    3633    3714      31    3630    3633    3717      31    3630    3627
    3705      30    3630    3627    3702      30    3627    3630    3711      30
    3627    3630    3708      30    3627    3624    3696      31    3627    3624
    3699      31    3624    3627    3705      30    3624    3627    3702      30
    3621    3624    3696      37    3621    3624    3699      37    3618    3600
    3672      38    3615    3612    3690      39    3615    3771    3846       3
    3612    3609    3687      40    3612    3609    3684      40    3612    3615
    3693      41    3609    3603    3678      40    3609    3612    3690      40
    3606    3603    3678      39    3603    3606    3681      41    3603    3609
    3687      40    3603    3609    3684      40    3603    3600    3618      40
    3600    3603    3678      40    3597    3594    3612      40    3597    3594
    3600      40    3594    3612    3690      40    3594    3600    3618      40
    3591    3594    3597      38    3897    3816    3900       6    3879    3798
    3882       6    3873    3795    3876       7    3867    3792    3870       7
    3861    3789    3864       6    3858    3780    3936       3    3849    3774
    3852       8    3834    3831    3912       9    3831    3834    3915      10
    3831    3825    3906      11    3831    3804    3885      12    3828    3825
    3906      13    3825    3828    3909      10    3825    3831    3912      12
    3822    3825    3906      16    3822    3813    3894      18    3819    3816
    3897      19    3819    3816    3900      19    3816    3813    3894      21
    3816    3819    3903      22    3813    3807    3888      12    3813    3816
    3897      24    3813    3816    3900      24    3810    3807    3888       9
    3807    3804    3885      12    3807    3813    3894      12    3807    3810
    3891      10    3804    3831    3912      12    3804    3807    3888      12
    3801    3798    3879      28    3801    3798    3882      28    3801    3804
    3885      18    3798    3795    3876      30    3798    3795    3873      30
    3795    3798    3879      31    3795    3798    3882      31    3795    3792
    3870      30    3795    3792    3867      30    3792    3795    3876      30
    3792    3795    3873      30    3792    3789    3861      31    3792    3789
    3864      31    3789    3792    3870      30    3789    3792    3867      30
    3786    3789    3861      37    3786    3789    3864      37    3783    3765
    3837      38    3780    3777    3855      39    3780    3936    4011       3
    3777    3774    3852      40    3777    3774    3849      40    3777    3780
    3858      41    3774    3768    3843      40    3774    3777    3855      40
    3771    3768    3843      39    3768    3771    3846      41    3768    3774
    3852      40    3768    3774    3849      40    3768    3765    3783      40
    3765    3768    3843      40    3762    3759    3777      40    3762    3759
    3765      40    3759    3777    3855      40    3759    3765    3783      40
    3756    3759    3762      38    4062    3981    4065       6    4044    3963
    4047       6    4038    3960    4041       7    4032    3957    4035       7
    4026    3954    4029       6    4023    3945    4101       3    4014    3939
    4017       8    3999    3996    4077       9    3996    3999    4080      10
    3996    3990    4071      11    3996    3969    4050      12    3993    3990
    4071      13    3990    3993    4074      10    3990    3996    4077      12
    3987    3990    4071      16    3987    3978    4059      18    3984    3981
    4062      19    3984    3981    4065      19    3981    3978    4059      21
    3981    3984    4068      22    3978    3972    4053      12    3978    3981
    4062      24    3978    3981    4065      24    3975    3972    4053       9
    3972    3969    4050      12    3972    3978    4059      12    3972    3975
    4056      10    3969    3996    4077      12    3969    3972    4053      12
    3966    3963    4044      28    3966    3963    4047      28    3966    3969
    4050      18    3963    3960    4041      30    3963    3960    4038      30
    3960    3963    4044      31    3960    3963    4047      31    3960    3957
    4035      30    3960    3957    4032      30    3957    3960    4041      30
    3957    3960    4038      30    3957    3954    4026      31    3957    3954
    4029      31    3954    3957    4035      30    3954    3957    4032      30
    3951    3954    4026      37    3951    3954    4029      37    3948    3930
    4002      38    3945    3942    4020      39    3945    4101    4176       3
    3942    3939    4017      40    3942    3939    4014      40    3942    3945
    4023      41    3939    3933    4008      40    3939    3942    4020      40
    3936    3933    4008      39    3933    3936    4011      41    3933    3939
    4017      40    3933    3939    4014      40    3933    3930    3948      40
    3930    3933    4008      40    3927    3924    3942      40    3927    3924
    3930      40    3924    3942    4020      40    3924    3930    3948      40
    3921    3924    3927      38    4227    4146    4230       6    4209    4128
    4212       6    4203    4125    4206       7    4197    4122    4200       7
    4191    4119    4194       6    4188    4110    4266       3    4179    4104
    4182       8    4164    4161    4242       9    4161    4164    4245      10
    4161    4155    4236      11    4161    4134    4215      12    4158    4155
    4236      13    4155    4158    4239      10    4155    4161    4242      12
    4152    4155    4236      16    4152    4143    4224      18    4149    4146
    4227      19    4149    4146    4230      19    4146    4143    4224      21
    4146    4149    4233      22    4143    4137    4218      12    4143    4146
    4227      24    4143    4146    4230      24    4140    4137    4218       9
    4137    4134    4215      12    4137    4143    4224      12    4137    4140
    4221      10    4134    4161    4242      12    4134    4137    4218      12
    4131    4128    4209      28    4131    4128    4212      28    4131    4134
    4215      18    4128    4125    4206      30    4128    4125    4203      30
    4125    4128    4209      31    4125    4128    4212      31    4125    4122
    4200      30    4125    4122    4197      30    4122    4125    4206      30
    4122    4125    4203      30    4122    4119    4191      31    4122    4119
    4194      31    4119    4122    4200      30    4119    4122    4197      30
    4116    4119    4191      37    4116    4119    4194      37    4113    4095
    4167      38    4110    4107    4185      39    4110    4266    4341       3
    4107    4104    4182      40    4107    4104    4179      40    4107    4110
    4188      41    4104    4098    4173      40    4104    4107    4185      40
    4101    4098    4173      39    4098    4101    4176      41    4098    4104
    4182      40    4098    4104    4179      40    4098    4095    4113      40
    4095    4098    4173      40    4092    4089    4107      40    4092    4089
    4095      40    4089    4107    4185      40    4089    4095    4113      40
    4086    4089    4092      38    4392    4311    4395       6    4374    4293
    4377       6    4368    4290    4371       7    4362    4287    4365       7
    4356    4284    4359       6    4353    4275    4431       3    4344    4269
    4347       8    4329    4326    4407       9    4326    4329    4410      10
    4326    4320    4401      11    4326    4299    4380      12    4323    4320
    4401      13    4320    4323    4404      10    4320    4326    4407      12
    4317    4320    4401      16    4317    4308    4389      18    4314    4311
    4392      19    4314    4311    4395      19    4311    4308    4389      21
    4311    4314    4398      22    4308    4302    4383      12    4308    4311
    4392      24    4308    4311    4395      24    4305    4302    4383       9
    4302    4299    4380      12    4302    4308    4389      12    4302    4305
    4386      10    4299    4326    4407      12    4299    4302    4383      12
    4296    4293    4374      28    4296    4293    4377      28    4296    4299
    4380      18    4293    4290    4371      30    4293    4290    4368      30
    4290    4293    4374      31    4290    4293    4377      31    4290    4287
    4365      30    4290    4287    4362      30    4287    4290    4371      30
    4287    4290    4368      30    4287    4284    4356      31    4287    4284
    4359      31    4284    4287    4365      30    4284    4287    4362      30
    4281    4284    4356      37    4281    4284    4359      37    4278    4260
    4332      38    4275    4272    4350      39    4275    4431    4506       3
    4272    4269    4347      40    4272    4269    4344      40    4272    4275
    4353      41    4269    4263    4338      40    4269    4272    4350      40
    4266    4263    4338      39    4263    4266    4341      41    4263    4269
    4347      40    4263    4269    4344      40    4263    4260    4278      40
    4260    4263    4338      40    4257    4254    4272      40    4257    4254
    4260      40    4254    4272    4350      40    4254    4260    4278      40
    4251    4254    4257      38    4557    4476    4560       6    4539    4458
    4542       6    4533    4455    4536       7    4527    4452    4530       7
    4521    4449    4524       6    4518    4440    4596       3    4509    4434
    4512       8    4494    4491    4572       9    4491    4494    4575      10
    4491    4485    4566      11    4491    4464    4545      12    4488    4485
    4566      13    4485    4488    4569      10    4485    4491    4572      12
    4482    4485    4566      16    4482    4473    4554      18    4479    4476
    4557      19    4479    4476    4560      19    4476    4473    4554      21
    4476    4479    4563      22    4473    4467    4548      12    4473    4476
    4557      24    4473    4476    4560      24    4470    4467    4548       9
    4467    4464    4545      12    4467    4473    4554      12    4467    4470
    4551      10    4464    4491    4572      12    4464    4467    4548      12
    4461    4458    4539      28    4461    4458    4542      28    4461    4464
    4545      18    4458    4455    4536      30    4458    4455    4533      30
    4455    4458    4539      31    4455    4458    4542      31    4455    4452
    4530      30    4455    4452    4527      30    4452    4455    4536      30
    4452    4455    4533      30    4452    4449    4521      31    4452    4449
    4524      31    4449    4452    4530      30    4449    4452    4527      30
    4446    4449    4521      37    4446    4449    4524      37    4443    4425
    4497      38    4440    4437    4515      39    4440    4596    4671       3
    4437    4434    4512      40    4437    4434    4509      40    4437    4440
    4518      41    4434    4428    4503      40    4434    4437    4515      40
    4431    4428    4503      39    4428    4431    4506      41    4428    4434
    4512      40    4428    4434    4509      40    4428    4425    4443      40
    4425    4428    4503      40    4422    4419    4437      40    4422    4419
    4425      40    4419    4437    4515      40    4419    4425    4443      40
    4416    4419    4422      38    4722    4641    4725       6    4704    4623
    4707       6    4698    4620    4701       7    4692    4617    4695       7
    4686    4614    4689       6    4683    4605    4761       3    4674    4599
    4677       8    4659    4656    4737       9    4656    4659    4740      10
    4656    4650    4731      11    4656    4629    4710      12    4653    4650
    4731      13    4650    4653    4734      10    4650    4656    4737      12
    4647    4650    4731      16    4647    4638    4719      18    4644    4641
    4722      19    4644    4641    4725      19    4641    4638    4719      21
    4641    4644    4728      22    4638    4632    4713      12    4638    4641
    4722      24    4638    4641    4725      24    4635    4632    4713       9
    4632    4629    4710      12    4632    4638    4719      12    4632    4635
    4716      10    4629    4656    4737      12    4629    4632    4713      12
    4626    4623    4704      28    4626    4623    4707      28    4626    4629
    4710      18    4623    4620    4701      30    4623    4620    4698      30
    4620    4623    4704      31    4620    4623    4707      31    4620    4617
    4695      30    4620    4617    4692      30    4617    4620    4701      30
    4617    4620    4698      30    4617    4614    4686      31    4617    4614
    4689      31    4614    4617    4695      30    4614    4617    4692      30
    4611    4614    4686      37    4611    4614    4689      37    4608    4590
    4662      38    4605    4602    4680      39    4605    4761    4836       3
    4602    4599    4677      40    4602    4599    4674      40    4602    4605
    4683      41    4599    4593    4668      40    4599    4602    4680      40
    4596    4593    4668      39    4593    4596    4671      41    4593    4599
    4677      40    4593    4599    4674      40    4593    4590    4608      40
    4590    4593    4668      40    4587    4584    4602      40    4587    4584
    4590      40    4584    4602    4680      40    4584    4590    4608      40
    4581    4584    4587      38    4887    4806    4890       6    4869    4788
    4872       6    4863    4785    4866       7    4857    4782    4860       7
    4851    4779    4854       6    4848    4770    4926       3    4839    4764
    4842       8    4824    4821    4902       9    4821    4824    4905      10
    4821    4815    4896      11    4821    4794    4875      12    4818    4815
    4896      13    4815    4818    4899      10    4815    4821    4902      12
    4812    4815    4896      16    4812    4803    4884      18    4809    4806
    4887      19    4809    4806    4890      19    4806    4803    4884      21
    4806    4809    4893      22    4803    4797    4878      12    4803    4806
    4887      24    4803    4806    4890      24    4800    4797    4878       9
    4797    4794    4875      12    4797    4803    4884      12    4797    4800
    4881      10    4794    4821    4902      12    4794    4797    4878      12
    4791    4788    4869      28    4791    4788    4872      28    4791    4794
    4875      18    4788    4785    4866      30    4788    4785    4863      30
    4785    4788    4869      31    4785    4788    4872      31    4785    4782
    4860      30    4785    4782    4857      30    4782    4785    4866      30
    4782    4785    4863      30    4782    4779    4851      31    4782    4779
    4854      31    4779    4782    4860      30    4779    4782    4857      30
    4776    4779    4851      37    4776    4779    4854      37    4773    4755
    4827      38    4770    4767    4845      39    4770    4926    5001       3
    4767    4764    4842      40    4767    4764    4839      40    4767    4770
    4848      41    4764    4758    4833      40    4764    4767    4845      40
    4761    4758    4833      39    4758    4761    4836      41    4758    4764
    4842      40    4758    4764    4839      40    4758    4755    4773      40
    4755    4758    4833      40    4752    4749    4767      40    4752    4749
    4755      40    4749    4767    4845      40    4749    4755    4773      40
    4746    4749    4752      38    5052    4971    5055       6    5034    4953
    5037       6    5028    4950    5031       7    5022    4947    5025       7
    5016    4944    5019       6    5013    4935    5073       3    5004    4929
    5007       8    4989    4986    5067       9    4986    4989    5070      10
    4986    4980    5061      11    4986    4959    5040      12    4983    4980
    5061      13    4980    4983    5064      10    4980    4986    5067      12
    4977    4980    5061      16    4977    4968    5049      18    4974    4971
    5052      19    4974    4971    5055      19    4971    4968    5049      21
    4971    4974    5058      22    4968    4962    5043      12    4968    4971
    5052      24    4968    4971    5055      24    4965    4962    5043       9
    4962    4959    5040      12    4962    4968    5049      12    4962    4965
    5046      10    4959    4986    5067      12    4959    4962    5043      12
    4956    4953    5034      28    4956    4953    5037      28    4956    4959
    5040      18    4953    4950    5031      30    4953    4950    5028      30
    4950    4953    5034      31    4950    4953    5037      31    4950    4947
    5025      30    4950    4947    5022      30    4947    4950    5031      30
    4947    4950    5028      30    4947    4944    5016      31    4947    4944
    5019      31    4944    4947    5025      30    4944    4947    5022      30
    4941    4944    5016      37    4941    4944    5019      37    4938    4920
    4992      38    4935    4932    5010      39    4935    5073    5076       3
    4935    5073    5079       3    4932    4929    5007      40    4932    4929
    5004      40    4932    4935    5013      41    4929    4923    4998      40
    4929    4932    5010      40    4926    4923    4998      39    4923    4926
    5001      41    4923    4929    5007      40    4923    4929    5004      40
    4923    4920    4938      40    4920    4923    4998      40    4917    4914
    4932      40    4917    4914    4920      40    4914    4932    5010      40
    4914    4920    4938      40    4911    4914    4917      38    5076    5073
    5079       4
%FLAG ANGLES_WITHOUT_HYDROGEN                                                   
%FORMAT(10I8)                                                                   
      39      36      42       1      36      42      45       1      33      36
      42       1      33      36      39       1      30      33      36       1
      30      27      45       1      27      30      33       1      27      45
      42       1      24      27      30       1      24      27      45       1
      21      24      27       1      18      15      45       1      18      21
      24       1      15      45      27       1      15      45      42       1
      15      18      21       1      12      15      45       1      12      15
      18       1       9      12      15       1       9       6      42       1
       6       9      12       1       6      42      45       1       6      42
      36       1       3       6       9       1       3       6      42       1
       3       0      39       1       0      39      36       1       0       3
       6       1      78     105     102       5     162     159     165      14
     159     165     168      14     156     159     162      15     156     159
     165      17     150     147     156      20     147     156     159      23
     147     150     153      25     144     141     147      14     141     138
     165      26     141     147     156      17     141     147     150      27
     138     165     168      14     138     165     159      26     138     141
     147      26     138     141     144      14     135     138     165      17
     135     138     141      17     132     135     138      29     129     132
     135      32     126     129     132      33     123     126     129      33
     123     120     171      34     120     171     174      35     120     123
     126      36     114     270     267       5     111     114     270       5
     108     111     114      42     105     102     108      42     102     108
     111      43     102      99     171      44      99     102     105      42
      99     102     108      43      99     171     174      45      99     171
     120      46      99      93     111      43      93     111     108      43
      93     111     114      42      93      99     102      43      93      99
     171      44      93      90     120      46      90      93     111      44
      90      93      99      44      90     120     171      47      90     120
     123      34      87      90      93      45      87      90     120      35
     327     324     330      14     324     330     333      14     321     324
     327      15     321     324     330      17     315     312     321      20
     312     321     324      23     312     315     318      25     309     306
     312      14     306     303     330      26     306     312     321      17
     306     312     315      27     303     330     333      14     303     330
     324      26     303     306     312      26     303     306     309      14
     300     303     330      17     300     303     306      17     297     300
     303      29     294     297     300      32     291     294     297      33
     288     291     294      33     288     285     336      34     285     336
     339      35     285     288     291      36     279     435     432       5
     276     279     435       5     273     276     279      42     270     267
     273      42     267     273     276      43     267     264     336      44
     264     267     270      42     264     267     273      43     264     336
     339      45     264     336     285      46     264     258     276      43
     258     276     273      43     258     276     279      42     258     264
     267      43     258     264     336      44     258     255     285      46
     255     258     276      44     255     258     264      44     255     285
     336      47     255     285     288      34     252     255     258      45
     252     255     285      35     492     489     495      14     489     495
     498      14     486     489     492      15     486     489     495      17
     480     477     486      20     477     486     489      23     477     480
     483      25     474     471     477      14     471     468     495      26
     471     477     486      17     471     477     480      27     468     495
     498      14     468     495     489      26     468     471     477      26
     468     471     474      14     465     468     495      17     465     468
     471      17     462     465     468      29     459     462     465      32
     456     459     462      33     453     456     459      33     453     450
     501      34     450     501     504      35     450     453     456      36
     444     600     597       5     441     444     600       5     438     441
     444      42     435     432     438      42     432     438     441      43
     432     429     501      44     429     432     435      42     429     432
     438      43     429     501     504      45     429     501     450      46
     429     423     441      43     423     441     438      43     423     441
     444      42     423     429     432      43     423     429     501      44
     423     420     450      46     420     423     441      44     420     423
     429      44     420     450     501      47     420     450     453      34
     417     420     423      45     417     420     450      35     657     654
     660      14     654     660     663      14     651     654     657      15
     651     654     660      17     645     642     651      20     642     651
     654      23     642     645     648      25     639     636     642      14
     636     633     660      26     636     642     651      17     636     642
     645      27     633     660     663      14     633     660     654      26
     633     636     642      26     633     636     639      14     630     633
     660      17     630     633     636      17     627     630     633      29
     624     627     630      32     621     624     627      33     618     621
     624      33     618     615     666      34     615     666     669      35
     615     618     621      36     609     765     762       5     606     609
     765       5     603     606     609      42     600     597     603      42
     597     603     606      43     597     594     666      44     594     597
     600      42     594     597     603      43     594     666     669      45
     594     666     615      46     594     588     606      43     588     606
     603      43     588     606     609      42     588     594     597      43
     588     594     666      44     588     585     615      46     585     588
     606      44     585     588     594      44     585     615     666      47
     585     615     618      34     582     585     588      45     582     585
     615      35     822     819     825      14     819     825     828      14
     816     819     822      15     816     819     825      17     810     807
     816      20     807     816     819      23     807     810     813      25
     804     801     807      14     801     798     825      26     801     807
     816      17     801     807     810      27     798     825     828      14
     798     825     819      26     798     801     807      26     798     801
     804      14     795     798     825      17     795     798     801      17
     792     795     798      29     789     792     795      32     786     789
     792      33     783     786     789      33     783     780     831      34
     780     831     834      35     780     783     786      36     774     930
     927       5     771     774     930       5     768     771     774      42
     765     762     768      42     762     768     771      43     762     759
     831      44     759     762     765      42     759     762     768      43
     759     831     834      45     759     831     780      46     759     753
     771      43     753     771     768      43     753     771     774      42
     753     759     762      43     753     759     831      44     753     750
     780      46     750     753     771      44     750     753     759      44
     750     780     831      47     750     780     783      34     747     750
     753      45     747     750     780      35     987     984     990      14
     984     990     993      14     981     984     987      15     981     984
     990      17     975     972     981      20     972     981     984      23
     972     975     978      25     969     966     972      14     966     963
     990      26     966     972     981      17     966     972     975      27
     963     990     993      14     963     990     984      26     963     966
     972      26     963     966     969      14     960     963     990      17
     960     963     966      17     957     960     963      29     954     957
     960      32     951     954     957      33     948     951     954      33
     948     945     996      34     945     996     999      35     945     948
     951      36     939    1095    1092       5     936     939    1095       5
     933     936     939      42     930     927     933      42     927     933
     936      43     927     924     996      44     924     927     930      42
     924     927     933      43     924     996     999      45     924     996
     945      46     924     918     936      43     918     936     933      43
     918     936     939      42     918     924     927      43     918     924
     996      44     918     915     945      46     915     918     936      44
     915     918     924      44     915     945     996      47     915     945
     948      34     912     915     918      45     912     915     945      35
    1152    1149    1155      14    1149    1155    1158      14    1146    1149
    1152      15    1146    1149    1155      17    1140    1137    1146      20
    1137    1146    1149      23    1137    1140    1143      25    1134    1131
    1137      14    1131    1128    1155      26    1131    1137    1146      17
    1131    1137    1140      27    1128    1155    1158      14    1128    1155
    1149      26    1128    1131    1137      26    1128    1131    1134      14
    1125    1128    1155      17    1125    1128    1131      17    1122    1125
    1128      29    1119    1122    1125      32    1116    1119    1122      33
    1113    1116    1119      33    1113    1110    1161      34    1110    1161
    1164      35    1110    1113    1116      36    1104    1260    1257       5
    1101    1104    1260       5    1098    1101    1104      42    1095    1092
    1098      42    1092    1098    1101      43    1092    1089    1161      44
    1089    1092    1095      42    1089    1092    1098      43    1089    1161
    1164      45    1089    1161    1110      46    1089    1083    1101      43
    1083    1101    1098      43    1083    1101    1104      42    1083    1089
    1092      43    1083    1089    1161      44    1083    1080    1110      46
    1080    1083    1101      44    1080    1083    1089      44    1080    1110
    1161      47    1080    1110    1113      34    1077    1080    1083      45
    1077    1080    1110      35    1317    1314    1320      14    1314    1320
    1323      14    1311    1314    1317      15    1311    1314    1320      17
    1305    1302    1311      20    1302    1311    1314      23    1302    1305
    1308      25    1299    1296    1302      14    1296    1293    1320      26
    1296    1302    1311      17    1296    1302    1305      27    1293    1320
    1323      14    1293    1320    1314      26    1293    1296    1302      26
    1293    1296    1299      14    1290    1293    1320      17    1290    1293
    1296      17    1287    1290    1293      29    1284    1287    1290      32
    1281    1284    1287      33    1278    1281    1284      33    1278    1275
    1326      34    1275    1326    1329      35    1275    1278    1281      36
    1269    1425    1422       5    1266    1269    1425       5    1263    1266
    1269      42    1260    1257    1263      42    1257    1263    1266      43
    1257    1254    1326      44    1254    1257    1260      42    1254    1257
    1263      43    1254    1326    1329      45    1254    1326    1275      46
    1254    1248    1266      43    1248    1266    1263      43    1248    1266
    1269      42    1248    1254    1257      43    1248    1254    1326      44
    1248    1245    1275      46    1245    1248    1266      44    1245    1248
    1254      44    1245    1275    1326      47    1245    1275    1278      34
    1242    1245    1248      45    1242    1245    1275      35    1482    1479
    1485      14    1479    1485    1488      14    1476    1479    1482      15
    1476    1479    1485      17    1470    1467    1476      20    1467    1476
    1479      23    1467    1470    1473      25    1464    1461    1467      14
    1461    1458    1485      26    1461    1467    1476      17    1461    1467
    1470      27    1458    1485    1488      14    1458    1485    1479      26
    1458    1461    1467      26    1458    1461    1464      14    1455    1458
    1485      17    1455    1458    1461      17    1452    1455    1458      29
    1449    1452    1455      32    1446    1449    1452      33    1443    1446
    1449      33    1443    1440    1491      34    1440    1491    1494      35
    1440    1443    1446      36    1434    1590    1587       5    1431    1434
    1590       5    1428    1431    1434      42    1425    1422    1428      42
    1422    1428    1431      43    1422    1419    1491      44    1419    1422
    1425      42    1419    1422    1428      43    1419    1491    1494      45
    1419    1491    1440      46    1419    1413    1431      43    1413    1431
    1428      43    1413    1431    1434      42    1413    1419    1422      43
    1413    1419    1491      44    1413    1410    1440      46    1410    1413
    1431      44    1410    1413    1419      44    1410    1440    1491      47
    1410    1440    1443      34    1407    1410    1413      45    1407    1410
    1440      35    1647    1644    1650      14    1644    1650    1653      14
    1641    1644    1647      15    1641    1644    1650      17    1635    1632
    1641      20    1632    1641    1644      23    1632    1635    1638      25
    1629    1626    1632      14    1626    1623    1650      26    1626    1632
    1641      17    1626    1632    1635      27    1623    1650    1653      14
    1623    1650    1644      26    1623    1626    1632      26    1623    1626
    1629      14    1620    1623    1650      17    1620    1623    1626      17
    1617    1620    1623      29    1614    1617    1620      32    1611    1614
    1617      33    1608    1611    1614      33    1608    1605    1656      34
    1605    1656    1659      35    1605    1608    1611      36    1596    1599
    1737       5    1593    1596    1599      42    1590    1587    1593      42
    1587    1593    1596      43    1587    1584    1656      44    1584    1587
    1590      42    1584    1587    1593      43    1584    1656    1659      45
    1584    1656    1605      46    1584    1578    1596      43    1578    1596
    1593      43    1578    1596    1599      42    1578    1584    1587      43
    1578    1584    1656      44    1578    1575    1605      46    1575    1578
    1596      44    1575    1578    1584      44    1575    1605    1656      47
    1575    1605    1608      34    1572    1575    1578      45    1572    1575
    1605      35    1746    1773    1770       5    1830    1827    1833      14
    1827    1833    1836      14    1824    1827    1830      15    1824    1827
    1833      17    1818    1815    1824      20    1815    1824    1827      23
    1815    1818    1821      25    1812    1809    1815      14    1809    1806
    1833      26    1809    1815    1824      17    1809    1815    1818      27
    1806    1833    1836      14    1806    1833    1827      26    1806    1809
    1815      26    1806    1809    1812      14    1803    1806    1833      17
    1803    1806    1809      17    1800    1803    1806      29    1797    1800
    1803      32    1794    1797    1800      33    1791    1794    1797      33
    1791    1788    1839      34    1788    1839    1842      35    1788    1791
    1794      36    1782    1938    1935       5    1779    1782    1938       5
    1776    1779    1782      42    1773    1770    1776      42    1770    1776
    1779      43    1770    1767    1839      44    1767    1770    1773      42
    1767    1770    1776      43    1767    1839    1842      45    1767    1839
    1788      46    1767    1761    1779      43    1761    1779    1776      43
    1761    1779    1782      42    1761    1767    1770      43    1761    1767
    1839      44    1761    1758    1788      46    1758    1761    1779      44
    1758    1761    1767      44    1758    1788    1839      47    1758    1788
    1791      34    1755    1758    1761      45    1755    1758    1788      35
    1995    1992    1998      14    1992    1998    2001      14    1989    1992
    1995      15    1989    1992    1998      17    1983    1980    1989      20
    1980    1989    1992      23    1980    1983    1986      25    1977    1974
    1980      14    1974    1971    1998      26    1974    1980    1989      17
    1974    1980    1983      27    1971    1998    2001      14    1971    1998
    1992      26    1971    1974    1980      26    1971    1974    1977      14
    1968    1971    1998      17    1968    1971    1974      17    1965    1968
    1971      29    1962    1965    1968      32    1959    1962    1965      33
    1956    1959    1962      33    1956    1953    2004      34    1953    2004
    2007      35    1953    1956    1959      36    1947    2103    2100       5
    1944    1947    2103       5    1941    1944    1947      42    1938    1935
    1941      42    1935    1941    1944      43    1935    1932    2004      44
    1932    1935    1938      42    1932    1935    1941      43    1932    2004
    2007      45    1932    2004    1953      46    1932    1926    1944      43
    1926    1944    1941      43    1926    1944    1947      42    1926    1932
    1935      43    1926    1932    2004      44    1926    1923    1953      46
    1923    1926    1944      44    1923    1926    1932      44    1923    1953
    2004      47    1923    1953    1956      34    1920    1923    1926      45
    1920    1923    1953      35    2160    2157    2163      14    2157    2163
    2166      14    2154    2157    2160      15    2154    2157    2163      17
    2148    2145    2154      20    2145    2154    2157      23    2145    2148
    2151      25    2142    2139    2145      14    2139    2136    2163      26
    2139    2145    2154      17    2139    2145    2148      27    2136    2163
    2166      14    2136    2163    2157      26    2136    2139    2145      26
    2136    2139    2142      14    2133    2136    2163      17    2133    2136
    2139      17    2130    2133    2136      29    2127    2130    2133      32
    2124    2127    2130      33    2121    2124    2127      33    2121    2118
    2169      34    2118    2169    2172      35    2118    2121    2124      36
    2112    2268    2265       5    2109    2112    2268       5    2106    2109
    2112      42    2103    2100    2106      42    2100    2106    2109      43
    2100    2097    2169      44    2097    2100    2103      42    2097    2100
    2106      43    2097    2169    2172      45    2097    2169    2118      46
    2097    2091    2109      43    2091    2109    2106      43    2091    2109
    2112      42    2091    2097    2100      43    2091    2097    2169      44
    2091    2088    2118      46    2088    2091    2109      44    2088    2091
    2097      44    2088    2118    2169      47    2088    2118    2121      34
    2085    2088    2091      45    2085    2088    2118      35    2325    2322
    2328      14    2322    2328    2331      14    2319    2322    2325      15
    2319    2322    2328      17    2313    2310    2319      20    2310    2319
    2322      23    2310    2313    2316      25    2307    2304    2310      14
    2304    2301    2328      26    2304    2310    2319      17    2304    2310
    2313      27    2301    2328    2331      14    2301    2328    2322      26
    2301    2304    2310      26    2301    2304    2307      14    2298    2301
    2328      17    2298    2301    2304      17    2295    2298    2301      29
    2292    2295    2298      32    2289    2292    2295      33    2286    2289
    2292      33    2286    2283    2334      34    2283    2334    2337      35
    2283    2286    2289      36    2277    2433    2430       5    2274    2277
    2433       5    2271    2274    2277      42    2268    2265    2271      42
    2265    2271    2274      43    2265    2262    2334      44    2262    2265
    2268      42    2262    2265    2271      43    2262    2334    2337      45
    2262    2334    2283      46    2262    2256    2274      43    2256    2274
    2271      43    2256    2274    2277      42    2256    2262    2265      43
    2256    2262    2334      44    2256    2253    2283      46    2253    2256
    2274      44    2253    2256    2262      44    2253    2283    2334      47
    2253    2283    2286      34    2250    2253    2256      45    2250    2253
    2283      35    2490    2487    2493      14    2487    2493    2496      14
    2484    2487    2490      15    2484    2487    2493      17    2478    2475
    2484      20    2475    2484    2487      23    2475    2478    2481      25
    2472    2469    2475      14    2469    2466    2493      26    2469    2475
    2484      17    2469    2475    2478      27    2466    2493    2496      14
    2466    2493    2487      26    2466    2469    2475      26    2466    2469
    2472      14    2463    2466    2493      17    2463    2466    2469      17
    2460    2463    2466      29    2457    2460    2463      32    2454    2457
    2460      33    2451    2454    2457      33    2451    2448    2499      34
    2448    2499    2502      35    2448    2451    2454      36    2442    2598
    2595       5    2439    2442    2598       5    2436    2439    2442      42
    2433    2430    2436      42    2430    2436    2439      43    2430    2427
    2499      44    2427    2430    2433      42    2427    2430    2436      43
    2427    2499    2502      45    2427    2499    2448      46    2427    2421
    2439      43    2421    2439    2436      43    2421    2439    2442      42
    2421    2427    2430      43    2421    2427    2499      44    2421    2418
    2448      46    2418    2421    2439      44    2418    2421    2427      44
    2418    2448    2499      47    2418    2448    2451      34    2415    2418
    2421      45    2415    2418    2448      35    2655    2652    2658      14
    2652    2658    2661      14    2649    2652    2655      15    2649    2652
    2658      17    2643    2640    2649      20    2640    2649    2652      23
    2640    2643    2646      25    2637    2634    2640      14    2634    2631
    2658      26    2634    2640    2649      17    2634    2640    2643      27
    2631    2658    2661      14    2631    2658    2652      26    2631    2634
    2640      26    2631    2634    2637      14    2628    2631    2658      17
    2628    2631    2634      17    2625    2628    2631      29    2622    2625
    2628      32    2619    2622    2625      33    2616    2619    2622      33
    2616    2613    2664      34    2613    2664    2667      35    2613    2616
    2619      36    2607    2763    2760       5    2604    2607    2763       5
    2601    2604    2607      42    2598    2595    2601      42    2595    2601
    2604      43    2595    2592    2664      44    2592    2595    2598      42
    2592    2595    2601      43    2592    2664    2667      45    2592    2664
    2613      46    2592    2586    2604      43    2586    2604    2601      43
    2586    2604    2607      42    2586    2592    2595      43    2586    2592
    2664      44    2586    2583    2613      46    2583    2586    2604      44
    2583    2586    2592      44    2583    2613    2664      47    2583    2613
    2616      34    2580    2583    2586      45    2580    2583    2613      35
    2820    2817    2823      14    2817    2823    2826      14    2814    2817
    2820      15    2814    2817    2823      17    2808    2805    2814      20
    2805    2814    2817      23    2805    2808    2811      25    2802    2799
    2805      14    2799    2796    2823      26    2799    2805    2814      17
    2799    2805    2808      27    2796    2823    2826      14    2796    2823
    2817      26    2796    2799    2805      26    2796    2799    2802      14
    2793    2796    2823      17    2793    2796    2799      17    2790    2793
    2796      29    2787    2790    2793      32    2784    2787    2790      33
    2781    2784    2787      33    2781    2778    2829      34    2778    2829
    2832      35    2778    2781    2784      36    2772    2928    2925       5
    2769    2772    2928       5    2766    2769    2772      42    2763    2760
    2766      42    2760    2766    2769      43    2760    2757    2829      44
    2757    2760    2763      42    2757    2760    2766      43    2757    2829
    2832      45    2757    2829    2778      46    2757    2751    2769      43
    2751    2769    2766      43    2751    2769    2772      42    2751    2757
    2760      43    2751    2757    2829      44    2751    2748    2778      46
    2748    2751    2769      44    2748    2751    2757      44    2748    2778
    2829      47    2748    2778    2781      34    2745    2748    2751      45
    2745    2748    2778      35    2985    2982    2988      14    2982    2988
    2991      14    2979    2982    2985      15    2979    2982    2988      17
    2973    2970    2979      20    2970    2979    2982      23    2970    2973
    2976      25    2967    2964    2970      14    2964    2961    2988      26
    2964    2970    2979      17    2964    2970    2973      27    2961    2988
    2991      14    2961    2988    2982      26    2961    2964    2970      26
    2961    2964    2967      14    2958    2961    2988      17    2958    2961
    2964      17    2955    2958    2961      29    2952    2955    2958      32
    2949    2952    2955      33    2946    2949    2952      33    2946    2943
    2994      34    2943    2994    2997      35    2943    2946    2949      36
    2937    3093    3090       5    2934    2937    3093       5    2931    2934
    2937      42    2928    2925    2931      42    2925    2931    2934      43
    2925    2922    2994      44    2922    2925    2928      42    2922    2925
    2931      43    2922    2994    2997      45    2922    2994    2943      46
    2922    2916    2934      43    2916    2934    2931      43    2916    2934
    2937      42    2916    2922    2925      43    2916    2922    2994      44
    2916    2913    2943      46    2913    2916    2934      44    2913    2916
    2922      44    2913    2943    2994      47    2913    2943    2946      34
    2910    2913    2916      45    2910    2913    2943      35    3150    3147
    3153      14    3147    3153    3156      14    3144    3147    3150      15
    3144    3147    3153      17    3138    3135    3144      20    3135    3144
    3147      23    3135    3138    3141      25    3132    3129    3135      14
    3129    3126    3153      26    3129    3135    3144      17    3129    3135
    3138      27    3126    3153    3156      14    3126    3153    3147      26
    3126    3129    3135      26    3126    3129    3132      14    3123    3126
    3153      17    3123    3126    3129      17    3120    3123    3126      29
    3117    3120    3123      32    3114    3117    3120      33    3111    3114
    3117      33    3111    3108    3159      34    3108    3159    3162      35
    3108    3111    3114      36    3102    3258    3255       5    3099    3102
    3258       5    3096    3099    3102      42    3093    3090    3096      42
    3090    3096    3099      43    3090    3087    3159      44    3087    3090
    3093      42    3087    3090    3096      43    3087    3159    3162      45
    3087    3159    3108      46    3087    3081    3099      43    3081    3099
    3096      43    3081    3099    3102      42    3081    3087    3090      43
    3081    3087    3159      44    3081    3078    3108      46    3078    3081
    3099      44    3078    3081    3087      44    3078    3108    3159      47
    3078    3108    3111      34    3075    3078    3081      45    3075    3078
    3108      35    3315    3312    3318      14    3312    3318    3321      14
    3309    3312    3315      15    3309    3312    3318      17    3303    3300
    3309      20    3300    3309    3312      23    3300    3303    3306      25
    3297    3294    3300      14    3294    3291    3318      26    3294    3300
    3309      17    3294    3300    3303      27    3291    3318    3321      14
    3291    3318    3312      26    3291    3294    3300      26    3291    3294
    3297      14    3288    3291    3318      17    3288    3291    3294      17
    3285    3288    3291      29    3282    3285    3288      32    3279    3282
    3285      33    3276    3279    3282      33    3276    3273    3324      34
    3273    3324    3327      35    3273    3276    3279      36    3264    3267
    3405       5    3261    3264    3267      42    3258    3255    3261      42
    3255    3261    3264      43    3255    3252    3324      44    3252    3255
    3258      42    3252    3255    3261      43    3252    3324    3327      45
    3252    3324    3273      46    3252    3246    3264      43    3246    3264
    3261      43    3246    3264    3267      42    3246    3252    3255      43
    3246    3252    3324      44    3246    3243    3273      46    3243    3246
    3264      44    3243    3246    3252      44    3243    3273    3324      47
    3243    3273    3276      34    3240    3243    3246      45    3240    3243
    3273      35    3414    3441    3438       5    3498    3495    3501      14
    3495    3501    3504      14    3492    3495    3498      15    3492    3495
    3501      17    3486    3483    3492      20    3483    3492    3495      23
    3483    3486    3489      25    3480    3477    3483      14    3477    3474
    3501      26    3477    3483    3492      17    3477    3483    3486      27
    3474    3501    3504      14    3474    3501    3495      26    3474    3477
    3483      26    3474    3477    3480      14    3471    3474    3501      17
    3471    3474    3477      17    3468    3471    3474      29    3465    3468
    3471      32    3462    3465    3468      33    3459    3462    3465      33
    3459    3456    3507      34    3456    3507    3510      35    3456    3459
    3462      36    3450    3606    3603       5    3447    3450    3606       5
    3444    3447    3450      42    3441    3438    3444      42    3438    3444
    3447      43    3438    3435    3507      44    3435    3438    3441      42
    3435    3438    3444      43    3435    3507    3510      45    3435    3507
    3456      46    3435    3429    3447      43    3429    3447    3444      43
    3429    3447    3450      42    3429    3435    3438      43    3429    3435
    3507      44    3429    3426    3456      46    3426    3429    3447      44
    3426    3429    3435      44    3426    3456    3507      47    3426    3456
    3459      34    3423    3426    3429      45    3423    3426    3456      35
    3663    3660    3666      14    3660    3666    3669      14    3657    3660
    3663      15    3657    3660    3666      17    3651    3648    3657      20
    3648    3657    3660      23    3648    3651    3654      25    3645    3642
    3648      14    3642    3639    3666      26    3642    3648    3657      17
    3642    3648    3651      27    3639    3666    3669      14    3639    3666
    3660      26    3639    3642    3648      26    3639    3642    3645      14
    3636    3639    3666      17    3636    3639    3642      17    3633    3636
    3639      29    3630    3633    3636      32    3627    3630    3633      33
    3624    3627    3630      33    3624    3621    3672      34    3621    3672
    3675      35    3621    3624    3627      36    3615    3771    3768       5
    3612    3615    3771       5    3609    3612    3615      42    3606    3603
    3609      42    3603    3609    3612      43    3603    3600    3672      44
    3600    3603    3606      42    3600    3603    3609      43    3600    3672
    3675      45    3600    3672    3621      46    3600    3594    3612      43
    3594    3612    3609      43    3594    3612    3615      42    3594    3600
    3603      43    3594    3600    3672      44    3594    3591    3621      46
    3591    3594    3612      44    3591    3594    3600      44    3591    3621
    3672      47    3591    3621    3624      34    3588    3591    3594      45
    3588    3591    3621      35    3828    3825    3831      14    3825    3831
    3834      14    3822    3825    3828      15    3822    3825    3831      17
    3816    3813    3822      20    3813    3822    3825      23    3813    3816
    3819      25    3810    3807    3813      14    3807    3804    3831      26
    3807    3813    3822      17    3807    3813    3816      27    3804    3831
    3834      14    3804    3831    3825      26    3804    3807    3813      26
    3804    3807    3810      14    3801    3804    3831      17    3801    3804
    3807      17    3798    3801    3804      29    3795    3798    3801      32
    3792    3795    3798      33    3789    3792    3795      33    3789    3786
    3837      34    3786    3837    3840      35    3786    3789    3792      36
    3780    3936    3933       5    3777    3780    3936       5    3774    3777
    3780      42    3771    3768    3774      42    3768    3774    3777      43
    3768    3765    3837      44    3765    3768    3771      42    3765    3768
    3774      43    3765    3837    3840      45    3765    3837    3786      46
    3765    3759    3777      43    3759    3777    3774      43    3759    3777
    3780      42    3759    3765    3768      43    3759    3765    3837      44
    3759    3756    3786      46    3756    3759    3777      44    3756    3759
    3765      44    3756    3786    3837      47    3756    3786    3789      34
    3753    3756    3759      45    3753    3756    3786      35    3993    3990
    3996      14    3990    3996    3999      14    3987    3990    3993      15
    3987    3990    3996      17    3981    3978    3987      20    3978    3987
    3990      23    3978    3981    3984      25    3975    3972    3978      14
    3972    3969    3996      26    3972    3978    3987      17    3972    3978
    3981      27    3969    3996    3999      14    3969    3996    3990      26
    3969    3972    3978      26    3969    3972    3975      14    3966    3969
    3996      17    3966    3969    3972      17    3963    3966    3969      29
    3960    3963    3966      32    3957    3960    3963      33    3954    3957
    3960      33    3954    3951    4002      34    3951    4002    4005      35
    3951    3954    3957      36    3945    4101    4098       5    3942    3945
    4101       5    3939    3942    3945      42    3936    3933    3939      42
    3933    3939    3942      43    3933    3930    4002      44    3930    3933
    3936      42    3930    3933    3939      43    3930    4002    4005      45
    3930    4002    3951      46    3930    3924    3942      43    3924    3942
    3939      43    3924    3942    3945      42    3924    3930    3933      43
    3924    3930    4002      44    3924    3921    3951      46    3921    3924
    3942      44    3921    3924    3930      44    3921    3951    4002      47
    3921    3951    3954      34    3918    3921    3924      45    3918    3921
    3951      35    4158    4155    4161      14    4155    4161    4164      14
    4152    4155    4158      15    4152    4155    4161      17    4146    4143
    4152      20    4143    4152    4155      23    4143    4146    4149      25
    4140    4137    4143      14    4137    4134    4161      26    4137    4143
    4152      17    4137    4143    4146      27    4134    4161    4164      14
    4134    4161    4155      26    4134    4137    4143      26    4134    4137
    4140      14    4131    4134    4161      17    4131    4134    4137      17
    4128    4131    4134      29    4125    4128    4131      32    4122    4125
    4128      33    4119    4122    4125      33    4119    4116    4167      34
    4116    4167    4170      35    4116    4119    4122      36    4110    4266
    4263       5    4107    4110    4266       5    4104    4107    4110      42
    4101    4098    4104      42    4098    4104    4107      43    4098    4095
    4167      44    4095    4098    4101      42    4095    4098    4104      43
    4095    4167    4170      45    4095    4167    4116      46    4095    4089
    4107      43    4089    4107    4104      43    4089    4107    4110      42
    4089    4095    4098      43    4089    4095    4167      44    4089    4086
    4116      46    4086    4089    4107      44    4086    4089    4095      44
    4086    4116    4167      47    4086    4116    4119      34    4083    4086
    4089      45    4083    4086    4116      35    4323    4320    4326      14
    4320    4326    4329      14    4317    4320    4323      15    4317    4320
    4326      17    4311    4308    4317      20    4308    4317    4320      23
    4308    4311    4314      25    4305    4302    4308      14    4302    4299
    4326      26    4302    4308    4317      17    4302    4308    4311      27
    4299    4326    4329      14    4299    4326    4320      26    4299    4302
    4308      26    4299    4302    4305      14    4296    4299    4326      17
    4296    4299    4302      17    4293    4296    4299      29    4290    4293
    4296      32    4287    4290    4293      33    4284    4287    4290      33
    4284    4281    4332      34    4281    4332    4335      35    4281    4284
    4287      36    4275    4431    4428       5    4272    4275    4431       5
    4269    4272    4275      42    4266    4263    4269      42    4263    4269
    4272      43    4263    4260    4332      44    4260    4263    4266      42
    4260    4263    4269      43    4260    4332    4335      45    4260    4332
    4281      46    4260    4254    4272      43    4254    4272    4269      43
    4254    4272    4275      42    4254    4260    4263      43    4254    4260
    4332      44    4254    4251    4281      46    4251    4254    4272      44
    4251    4254    4260      44    4251    4281    4332      47    4251    4281
    4284      34    4248    4251    4254      45    4248    4251    4281      35
    4488    4485    4491      14    4485    4491    4494      14    4482    4485
    4488      15    4482    4485    4491      17    4476    4473    4482      20
    4473    4482    4485      23    4473    4476    4479      25    4470    4467
    4473      14    4467    4464    4491      26    4467    4473    4482      17
    4467    4473    4476      27    4464    4491    4494      14    4464    4491
    4485      26    4464    4467    4473      26    4464    4467    4470      14
    4461    4464    4491      17    4461    4464    4467      17    4458    4461
    4464      29    4455    4458    4461      32    4452    4455    4458      33
    4449    4452    4455      33    4449    4446    4497      34    4446    4497
    4500      35    4446    4449    4452      36    4440    4596    4593       5
    4437    4440    4596       5    4434    4437    4440      42    4431    4428
    4434      42    4428    4434    4437      43    4428    4425    4497      44
    4425    4428    4431      42    4425    4428    4434      43    4425    4497
    4500      45    4425    4497    4446      46    4425    4419    4437      43
    4419    4437    4434      43    4419    4437    4440      42    4419    4425
    4428      43    4419    4425    4497      44    4419    4416    4446      46
    4416    4419    4437      44    4416    4419    4425      44    4416    4446
    4497      47    4416    4446    4449      34    4413    4416    4419      45
    4413    4416    4446      35    4653    4650    4656      14    4650    4656
    4659      14    4647    4650    4653      15    4647    4650    4656      17
    4641    4638    4647      20    4638    4647    4650      23    4638    4641
    4644      25    4635    4632    4638      14    4632    4629    4656      26
    4632    4638    4647      17    4632    4638    4641      27    4629    4656
    4659      14    4629    4656    4650      26    4629    4632    4638      26
    4629    4632    4635      14    4626    4629    4656      17    4626    4629
    4632      17    4623    4626    4629      29    4620    4623    4626      32
    4617    4620    4623      33    4614    4617    4620      33    4614    4611
    4662      34    4611    4662    4665      35    4611    4614    4617      36
    4605    4761    4758       5    4602    4605    4761       5    4599    4602
    4605      42    4596    4593    4599      42    4593    4599    4602      43
    4593    4590    4662      44    4590    4593    4596      42    4590    4593
    4599      43    4590    4662    4665      45    4590    4662    4611      46
    4590    4584    4602      43    4584    4602    4599      43    4584    4602
    4605      42    4584    4590    4593      43    4584    4590    4662      44
    4584    4581    4611      46    4581    4584    4602      44    4581    4584
    4590      44    4581    4611    4662      47    4581    4611    4614      34
    4578    4581    4584      45    4578    4581    4611      35    4818    4815
    4821      14    4815    4821    4824      14    4812    4815    4818      15
    4812    4815    4821      17    4806    4803    4812      20    4803    4812
    4815      23    4803    4806    4809      25    4800    4797    4803      14
    4797    4794    4821      26    4797    4803    4812      17    4797    4803
    4806      27    4794    4821    4824      14    4794    4821    4815      26
    4794    4797    4803      26    4794    4797    4800      14    4791    4794
    4821      17    4791    4794    4797      17    4788    4791    4794      29
    4785    4788    4791      32    4782    4785    4788      33    4779    4782
    4785      33    4779    4776    4827      34    4776    4827    4830      35
    4776    4779    4782      36    4770    4926    4923       5    4767    4770
    4926       5    4764    4767    4770      42    4761    4758    4764      42
    4758    4764    4767      43    4758    4755    4827      44    4755    4758
    4761      42    4755    4758    4764      43    4755    4827    4830      45
    4755    4827    4776      46    4755    4749    4767      43    4749    4767
    4764      43    4749    4767    4770      42    4749    4755    4758      43
    4749    4755    4827      44    4749    4746    4776      46    4746    4749
    4767      44    4746    4749    4755      44    4746    4776    4827      47
    4746    4776    4779      34    4743    4746    4749      45    4743    4746
    4776      35    4983    4980    4986      14    4980    4986    4989      14
    4977    4980    4983      15    4977    4980    4986      17    4971    4968
    4977      20    4968    4977    4980      23    4968    4971    4974      25
    4965    4962    4968      14    4962    4959    4986      26    4962    4968
    4977      17    4962    4968    4971      27    4959    4986    4989      14
    4959    4986    4980      26    4959    4962    4968      26    4959    4962
    4965      14    4956    4959    4986      17    4956    4959    4962      17
    4953    4956    4959      29    4950    4953    4956      32    4947    4950
    4953      33    4944    4947    4950      33    4944    4941    4992      34
    4941    4992    4995      35    4941    4944    4947      36    4932    4935
    5073       5    4929    4932    4935      42    4926    4923    4929      42
    4923    4929    4932      43    4923    4920    4992      44    4920    4923
    4926      42    4920    4923    4929      43    4920    4992    4995      45
    4920    4992    4941      46    4920    4914    4932      43    4914    4932
    4929      43    4914    4932    4935      42    4914    4920    4923      43
    4914    4920    4992      44    4914    4911    4941      46    4911    4914
    4932      44    4911    4914    4920      44    4911    4941    4992      47
    4911    4941    4944      34    4908    4911    4914      45    4908    4911
    4941      35
%FLAG DIHEDRALS_INC_HYDROGEN                                                    
%FORMAT(10I8)                                                                   
      69      30      33      72       1      63      21      24      66       1
      60      18      21      63       1      54       9      12      57       1
      48       0      39      75       1      48       0       3      51       1
      45      27      30      69       1      45      27      24      66       1
      45      15      12      57       1      45      15      18      60       1
      42      36      33      72       1      42      36      39      75       1
      42       6       9      54       1      42       6       3      51       1
      39      36      33      72       1      39       0       3      51       1
      36      33      30      69       1      48       0      39      36       1
      33      36      39      75       1      30      27      24      66       1
      27      30      33      72       1      27      24      21      63       1
      24      27      30      69       1      24      21      18      60       1
      18      15      12      57       1      18      21      24      66       1
      15      12       9      54       1      15      18      21      63       1
      12      15      18      60       1       9       6       3      51       1
       6       9      12      57       1      48       0       3       6       1
       3       6       9      54       1       3       0      39      75       1
      84      78     105     180       2      84      78     105     102       2
      81      78     105     180       2      81      78     105     102       2
      78     105     102     177       4      78     105    -102     177       3
      78     105    -102     177       5     246     165     168     249       6
     240     159     162     243       6     240     159     165     246       7
     234     150     153     237       8     231     150     153     237       8
     228     147     150     231       7     228     147     150     234       7
     222     141     147     228       7     222     141     144     225       6
     219     138     165     246       7     219     138     141     222       7
     210     129     132     213       7     210     129     132     216       7
     207     129     132     213       7     207     129     132     216       7
     204     126     129     210       9     204     126     129     207       9
     201     126     129     210       9     201     126     129     207       9
     198     123     126     204       7     198     123     126     201       7
     195     123     126     204       7     195     123     126     201       7
     192     114     270     345       2     192     114     270     267       2
     189     111     114     192       3     189     111     114     270       4
     189     111    -114     270       3     189     111    -114     270       5
     186     108     111     189      10     183     108     111     189      10
     177     102     105     180       3     177     102     108     186      10
     177     102     108     183      10     171      99     102     177       7
     171     120     123     195      11     171     120     123     198      11
     168     165     159     240       7     168     165     138     219      12
     168     165    -138     219      13     165     159     162     243      12
     165     159    -162     243      14     165     138     141     222       7
     162     159     165     246      12     162     159    -165     246      13
     159     165     168     249      12     159     165    -168     249      14
     159     165     138     219       7     159     156     147     228      17
     156     159     162     243       6     156     159     165     246      12
     156     159    -165     246      13     156     147     141     222      12
     156     147    -141     222      13     156     147     150     231      12
     156     147    -150     231      13     156     147     150     234      12
     156     147    -150     234      13     153     150     147     228      12
     153     150    -147     228      13     150     147     141     222       7
     147     156     159     240      17     147     141     138     219       7
     147     141     144     225      12     147     141    -144     225      14
     147     150     153     237      12     147     150    -153     237      14
     144     141     138     219      12     144     141    -138     219      13
     144     141     147     228      12     144     141    -147     228      13
     141     138     165     246       7     141     147     150     231       7
     141     147     150     234       7     138     165     168     249      12
     138     165    -168     249      14     138     165     159     240       7
     138     135     132     213      17     138     135     132     216      17
     138     141     147     228       7     138     141     144     225      12
     138     141    -144     225      14     135     132     129     210      12
     135     132    -129     210      13     135     132     129     207      12
     135     132    -129     207      13     135     138     165     246      12
     135     138    -165     246      13     135     138     141     222      12
     135     138    -141     222      13     132     135     138     219      17
     132     129     126     204      23     132     129     126     201      23
     129     126     123     195       7     129     126     123     198       7
     126     129     132     213       7     126     129     132     216       7
     123     126     129     210      23     123     126     129     207      23
     120     123     126     204       7     120     123     126     201       7
     117      99     102     177      10     117      99     171     174      30
     117      99    -171     174       3     117      99    -171     174      31
     117      99     171     120      11     114     111     108     186       7
     114     111     108     183       7     114     270     267     342       4
     114     270    -267     342       3     114     270    -267     342       5
     111     108     102     177      14     111     114     270     345       2
     111      93      99     117      14     108     102     105     180       3
     108     102      99     117      14     108     111     114     192       3
     105     102     108     186       7     105     102     108     183       7
     105     102      99     117       7     102     108     111     189      14
      99     102     105     180       3      99     102     108     186      14
      99     102     108     183      14      99      93     111     189      14
      96      93     111     189      10      96      93     111     108      14
      96      93     111     114       7      96      93      99     102      14
      96      93      99     171       7      96      93      99     117      10
      96      93      90     120      11      93     111     108     186      14
      93     111     108     183      14      93     111     114     192       3
      93      99     102     177      14      90      93     111     189       7
      90      93      99     117       7      90     120     123     195      11
      90     120     123     198      11      87      90      93      96      30
      87      90     -93      96       3      87      90     -93      96      31
     411     330     333     414       6     405     324     327     408       6
     405     324     330     411       7     399     315     318     402       8
     396     315     318     402       8     393     312     315     396       7
     393     312     315     399       7     387     306     312     393       7
     387     306     309     390       6     384     303     330     411       7
     384     303     306     387       7     375     294     297     378       7
     375     294     297     381       7     372     294     297     378       7
     372     294     297     381       7     369     291     294     375       9
     369     291     294     372       9     366     291     294     375       9
     366     291     294     372       9     363     288     291     369       7
     363     288     291     366       7     360     288     291     369       7
     360     288     291     366       7     357     279     435     510       2
     357     279     435     432       2     354     276     279     357       3
     354     276     279     435       4     354     276    -279     435       3
     354     276    -279     435       5     351     273     276     354      10
     348     273     276     354      10     342     267     270     345       3
     342     267     273     351      10     342     267     273     348      10
     336     264     267     342       7     336     285     288     360      11
     336     285     288     363      11     333     330     324     405       7
     333     330     303     384      12     333     330    -303     384      13
     330     324     327     408      12     330     324    -327     408      14
     330     303     306     387       7     327     324     330     411      12
     327     324    -330     411      13     324     330     333     414      12
     324     330    -333     414      14     324     330     303     384       7
     324     321     312     393      17     321     324     327     408       6
     321     324     330     411      12     321     324    -330     411      13
     321     312     306     387      12     321     312    -306     387      13
     321     312     315     396      12     321     312    -315     396      13
     321     312     315     399      12     321     312    -315     399      13
     318     315     312     393      12     318     315    -312     393      13
     315     312     306     387       7     312     321     324     405      17
     312     306     303     384       7     312     306     309     390      12
     312     306    -309     390      14     312     315     318     402      12
     312     315    -318     402      14     309     306     303     384      12
     309     306    -303     384      13     309     306     312     393      12
     309     306    -312     393      13     306     303     330     411       7
     306     312     315     396       7     306     312     315     399       7
     303     330     333     414      12     303     330    -333     414      14
     303     330     324     405       7     303     300     297     378      17
     303     300     297     381      17     303     306     312     393       7
     303     306     309     390      12     303     306    -309     390      14
     300     297     294     375      12     300     297    -294     375      13
     300     297     294     372      12     300     297    -294     372      13
     300     303     330     411      12     300     303    -330     411      13
     300     303     306     387      12     300     303    -306     387      13
     297     300     303     384      17     297     294     291     369      23
     297     294     291     366      23     294     291     288     360       7
     294     291     288     363       7     291     294     297     378       7
     291     294     297     381       7     288     291     294     375      23
     288     291     294     372      23     285     288     291     369       7
     285     288     291     366       7     282     264     267     342      10
     282     264     336     339      30     282     264    -336     339       3
     282     264    -336     339      31     282     264     336     285      11
     279     276     273     351       7     279     276     273     348       7
     279     435     432     507       4     279     435    -432     507       3
     279     435    -432     507       5     276     273     267     342      14
     276     279     435     510       2     276     258     264     282      14
     273     267     270     345       3     273     267     264     282      14
     273     276     279     357       3     270     267     273     351       7
     270     267     273     348       7     270     267     264     282       7
     267     273     276     354      14     264     267     270     345       3
     264     267     273     351      14     264     267     273     348      14
     264     258     276     354      14     261     258     276     354      10
     261     258     276     273      14     261     258     276     279       7
     261     258     264     267      14     261     258     264     336       7
     261     258     264     282      10     261     258     255     285      11
     258     276     273     351      14     258     276     273     348      14
     258     276     279     357       3     258     264     267     342      14
     255     258     276     354       7     255     258     264     282       7
     255     285     288     360      11     255     285     288     363      11
     252     255     258     261      30     252     255    -258     261       3
     252     255    -258     261      31     576     495     498     579       6
     570     489     492     573       6     570     489     495     576       7
     564     480     483     567       8     561     480     483     567       8
     558     477     480     561       7     558     477     480     564       7
     552     471     477     558       7     552     471     474     555       6
     549     468     495     576       7     549     468     471     552       7
     540     459     462     543       7     540     459     462     546       7
     537     459     462     543       7     537     459     462     546       7
     534     456     459     540       9     534     456     459     537       9
     531     456     459     540       9     531     456     459     537       9
     528     453     456     534       7     528     453     456     531       7
     525     453     456     534       7     525     453     456     531       7
     522     444     600     675       2     522     444     600     597       2
     519     441     444     522       3     519     441     444     600       4
     519     441    -444     600       3     519     441    -444     600       5
     516     438     441     519      10     513     438     441     519      10
     507     432     435     510       3     507     432     438     516      10
     507     432     438     513      10     501     429     432     507       7
     501     450     453     525      11     501     450     453     528      11
     498     495     489     570       7     498     495     468     549      12
     498     495    -468     549      13     495     489     492     573      12
     495     489    -492     573      14     495     468     471     552       7
     492     489     495     576      12     492     489    -495     576      13
     489     495     498     579      12     489     495    -498     579      14
     489     495     468     549       7     489     486     477     558      17
     486     489     492     573       6     486     489     495     576      12
     486     489    -495     576      13     486     477     471     552      12
     486     477    -471     552      13     486     477     480     561      12
     486     477    -480     561      13     486     477     480     564      12
     486     477    -480     564      13     483     480     477     558      12
     483     480    -477     558      13     480     477     471     552       7
     477     486     489     570      17     477     471     468     549       7
     477     471     474     555      12     477     471    -474     555      14
     477     480     483     567      12     477     480    -483     567      14
     474     471     468     549      12     474     471    -468     549      13
     474     471     477     558      12     474     471    -477     558      13
     471     468     495     576       7     471     477     480     561       7
     471     477     480     564       7     468     495     498     579      12
     468     495    -498     579      14     468     495     489     570       7
     468     465     462     543      17     468     465     462     546      17
     468     471     477     558       7     468     471     474     555      12
     468     471    -474     555      14     465     462     459     540      12
     465     462    -459     540      13     465     462     459     537      12
     465     462    -459     537      13     465     468     495     576      12
     465     468    -495     576      13     465     468     471     552      12
     465     468    -471     552      13     462     465     468     549      17
     462     459     456     534      23     462     459     456     531      23
     459     456     453     525       7     459     456     453     528       7
     456     459     462     543       7     456     459     462     546       7
     453     456     459     540      23     453     456     459     537      23
     450     453     456     534       7     450     453     456     531       7
     447     429     432     507      10     447     429     501     504      30
     447     429    -501     504       3     447     429    -501     504      31
     447     429     501     450      11     444     441     438     516       7
     444     441     438     513       7     444     600     597     672       4
     444     600    -597     672       3     444     600    -597     672       5
     441     438     432     507      14     441     444     600     675       2
     441     423     429     447      14     438     432     435     510       3
     438     432     429     447      14     438     441     444     522       3
     435     432     438     516       7     435     432     438     513       7
     435     432     429     447       7     432     438     441     519      14
     429     432     435     510       3     429     432     438     516      14
     429     432     438     513      14     429     423     441     519      14
     426     423     441     519      10     426     423     441     438      14
     426     423     441     444       7     426     423     429     432      14
     426     423     429     501       7     426     423     429     447      10
     426     423     420     450      11     423     441     438     516      14
     423     441     438     513      14     423     441     444     522       3
     423     429     432     507      14     420     423     441     519       7
     420     423     429     447       7     420     450     453     525      11
     420     450     453     528      11     417     420     423     426      30
     417     420    -423     426       3     417     420    -423     426      31
     741     660     663     744       6     735     654     657     738       6
     735     654     660     741       7     729     645     648     732       8
     726     645     648     732       8     723     642     645     726       7
     723     642     645     729       7     717     636     642     723       7
     717     636     639     720       6     714     633     660     741       7
     714     633     636     717       7     705     624     627     708       7
     705     624     627     711       7     702     624     627     708       7
     702     624     627     711       7     699     621     624     705       9
     699     621     624     702       9     696     621     624     705       9
     696     621     624     702       9     693     618     621     699       7
     693     618     621     696       7     690     618     621     699       7
     690     618     621     696       7     687     609     765     840       2
     687     609     765     762       2     684     606     609     687       3
     684     606     609     765       4     684     606    -609     765       3
     684     606    -609     765       5     681     603     606     684      10
     678     603     606     684      10     672     597     600     675       3
     672     597     603     681      10     672     597     603     678      10
     666     594     597     672       7     666     615     618     690      11
     666     615     618     693      11     663     660     654     735       7
     663     660     633     714      12     663     660    -633     714      13
     660     654     657     738      12     660     654    -657     738      14
     660     633     636     717       7     657     654     660     741      12
     657     654    -660     741      13     654     660     663     744      12
     654     660    -663     744      14     654     660     633     714       7
     654     651     642     723      17     651     654     657     738       6
     651     654     660     741      12     651     654    -660     741      13
     651     642     636     717      12     651     642    -636     717      13
     651     642     645     726      12     651     642    -645     726      13
     651     642     645     729      12     651     642    -645     729      13
     648     645     642     723      12     648     645    -642     723      13
     645     642     636     717       7     642     651     654     735      17
     642     636     633     714       7     642     636     639     720      12
     642     636    -639     720      14     642     645     648     732      12
     642     645    -648     732      14     639     636     633     714      12
     639     636    -633     714      13     639     636     642     723      12
     639     636    -642     723      13     636     633     660     741       7
     636     642     645     726       7     636     642     645     729       7
     633     660     663     744      12     633     660    -663     744      14
     633     660     654     735       7     633     630     627     708      17
     633     630     627     711      17     633     636     642     723       7
     633     636     639     720      12     633     636    -639     720      14
     630     627     624     705      12     630     627    -624     705      13
     630     627     624     702      12     630     627    -624     702      13
     630     633     660     741      12     630     633    -660     741      13
     630     633     636     717      12     630     633    -636     717      13
     627     630     633     714      17     627     624     621     699      23
     627     624     621     696      23     624     621     618     690       7
     624     621     618     693       7     621     624     627     708       7
     621     624     627     711       7     618     621     624     705      23
     618     621     624     702      23     615     618     621     699       7
     615     618     621     696       7     612     594     597     672      10
     612     594     666     669      30     612     594    -666     669       3
     612     594    -666     669      31     612     594     666     615      11
     609     606     603     681       7     609     606     603     678       7
     609     765     762     837       4     609     765    -762     837       3
     609     765    -762     837       5     606     603     597     672      14
     606     609     765     840       2     606     588     594     612      14
     603     597     600     675       3     603     597     594     612      14
     603     606     609     687       3     600     597     603     681       7
     600     597     603     678       7     600     597     594     612       7
     597     603     606     684      14     594     597     600     675       3
     594     597     603     681      14     594     597     603     678      14
     594     588     606     684      14     591     588     606     684      10
     591     588     606     603      14     591     588     606     609       7
     591     588     594     597      14     591     588     594     666       7
     591     588     594     612      10     591     588     585     615      11
     588     606     603     681      14     588     606     603     678      14
     588     606     609     687       3     588     594     597     672      14
     585     588     606     684       7     585     588     594     612       7
     585     615     618     690      11     585     615     618     693      11
     582     585     588     591      30     582     585    -588     591       3
     582     585    -588     591      31     906     825     828     909       6
     900     819     822     903       6     900     819     825     906       7
     894     810     813     897       8     891     810     813     897       8
     888     807     810     891       7     888     807     810     894       7
     882     801     807     888       7     882     801     804     885       6
     879     798     825     906       7     879     798     801     882       7
     870     789     792     873       7     870     789     792     876       7
     867     789     792     873       7     867     789     792     876       7
     864     786     789     870       9     864     786     789     867       9
     861     786     789     870       9     861     786     789     867       9
     858     783     786     864       7     858     783     786     861       7
     855     783     786     864       7     855     783     786     861       7
     852     774     930    1005       2     852     774     930     927       2
     849     771     774     852       3     849     771     774     930       4
     849     771    -774     930       3     849     771    -774     930       5
     846     768     771     849      10     843     768     771     849      10
     837     762     765     840       3     837     762     768     846      10
     837     762     768     843      10     831     759     762     837       7
     831     780     783     855      11     831     780     783     858      11
     828     825     819     900       7     828     825     798     879      12
     828     825    -798     879      13     825     819     822     903      12
     825     819    -822     903      14     825     798     801     882       7
     822     819     825     906      12     822     819    -825     906      13
     819     825     828     909      12     819     825    -828     909      14
     819     825     798     879       7     819     816     807     888      17
     816     819     822     903       6     816     819     825     906      12
     816     819    -825     906      13     816     807     801     882      12
     816     807    -801     882      13     816     807     810     891      12
     816     807    -810     891      13     816     807     810     894      12
     816     807    -810     894      13     813     810     807     888      12
     813     810    -807     888      13     810     807     801     882       7
     807     816     819     900      17     807     801     798     879       7
     807     801     804     885      12     807     801    -804     885      14
     807     810     813     897      12     807     810    -813     897      14
     804     801     798     879      12     804     801    -798     879      13
     804     801     807     888      12     804     801    -807     888      13
     801     798     825     906       7     801     807     810     891       7
     801     807     810     894       7     798     825     828     909      12
     798     825    -828     909      14     798     825     819     900       7
     798     795     792     873      17     798     795     792     876      17
     798     801     807     888       7     798     801     804     885      12
     798     801    -804     885      14     795     792     789     870      12
     795     792    -789     870      13     795     792     789     867      12
     795     792    -789     867      13     795     798     825     906      12
     795     798    -825     906      13     795     798     801     882      12
     795     798    -801     882      13     792     795     798     879      17
     792     789     786     864      23     792     789     786     861      23
     789     786     783     855       7     789     786     783     858       7
     786     789     792     873       7     786     789     792     876       7
     783     786     789     870      23     783     786     789     867      23
     780     783     786     864       7     780     783     786     861       7
     777     759     762     837      10     777     759     831     834      30
     777     759    -831     834       3     777     759    -831     834      31
     777     759     831     780      11     774     771     768     846       7
     774     771     768     843       7     774     930     927    1002       4
     774     930    -927    1002       3     774     930    -927    1002       5
     771     768     762     837      14     771     774     930    1005       2
     771     753     759     777      14     768     762     765     840       3
     768     762     759     777      14     768     771     774     852       3
     765     762     768     846       7     765     762     768     843       7
     765     762     759     777       7     762     768     771     849      14
     759     762     765     840       3     759     762     768     846      14
     759     762     768     843      14     759     753     771     849      14
     756     753     771     849      10     756     753     771     768      14
     756     753     771     774       7     756     753     759     762      14
     756     753     759     831       7     756     753     759     777      10
     756     753     750     780      11     753     771     768     846      14
     753     771     768     843      14     753     771     774     852       3
     753     759     762     837      14     750     753     771     849       7
     750     753     759     777       7     750     780     783     855      11
     750     780     783     858      11     747     750     753     756      30
     747     750    -753     756       3     747     750    -753     756      31
    1071     990     993    1074       6    1065     984     987    1068       6
    1065     984     990    1071       7    1059     975     978    1062       8
    1056     975     978    1062       8    1053     972     975    1056       7
    1053     972     975    1059       7    1047     966     972    1053       7
    1047     966     969    1050       6    1044     963     990    1071       7
    1044     963     966    1047       7    1035     954     957    1038       7
    1035     954     957    1041       7    1032     954     957    1038       7
    1032     954     957    1041       7    1029     951     954    1035       9
    1029     951     954    1032       9    1026     951     954    1035       9
    1026     951     954    1032       9    1023     948     951    1029       7
    1023     948     951    1026       7    1020     948     951    1029       7
    1020     948     951    1026       7    1017     939    1095    1170       2
    1017     939    1095    1092       2    1014     936     939    1017       3
    1014     936     939    1095       4    1014     936    -939    1095       3
    1014     936    -939    1095       5    1011     933     936    1014      10
    1008     933     936    1014      10    1002     927     930    1005       3
    1002     927     933    1011      10    1002     927     933    1008      10
     996     924     927    1002       7     996     945     948    1020      11
     996     945     948    1023      11     993     990     984    1065       7
     993     990     963    1044      12     993     990    -963    1044      13
     990     984     987    1068      12     990     984    -987    1068      14
     990     963     966    1047       7     987     984     990    1071      12
     987     984    -990    1071      13     984     990     993    1074      12
     984     990    -993    1074      14     984     990     963    1044       7
     984     981     972    1053      17     981     984     987    1068       6
     981     984     990    1071      12     981     984    -990    1071      13
     981     972     966    1047      12     981     972    -966    1047      13
     981     972     975    1056      12     981     972    -975    1056      13
     981     972     975    1059      12     981     972    -975    1059      13
     978     975     972    1053      12     978     975    -972    1053      13
     975     972     966    1047       7     972     981     984    1065      17
     972     966     963    1044       7     972     966     969    1050      12
     972     966    -969    1050      14     972     975     978    1062      12
     972     975    -978    1062      14     969     966     963    1044      12
     969     966    -963    1044      13     969     966     972    1053      12
     969     966    -972    1053      13     966     963     990    1071       7
     966     972     975    1056       7     966     972     975    1059       7
     963     990     993    1074      12     963     990    -993    1074      14
     963     990     984    1065       7     963     960     957    1038      17
     963     960     957    1041      17     963     966     972    1053       7
     963     966     969    1050      12     963     966    -969    1050      14
     960     957     954    1035      12     960     957    -954    1035      13
     960     957     954    1032      12     960     957    -954    1032      13
     960     963     990    1071      12     960     963    -990    1071      13
     960     963     966    1047      12     960     963    -966    1047      13
     957     960     963    1044      17     957     954     951    1029      23
     957     954     951    1026      23     954     951     948    1020       7
     954     951     948    1023       7     951     954     957    1038       7
     951     954     957    1041       7     948     951     954    1035      23
     948     951     954    1032      23     945     948     951    1029       7
     945     948     951    1026       7     942     924     927    1002      10
     942     924     996     999      30     942     924    -996     999       3
     942     924    -996     999      31     942     924     996     945      11
     939     936     933    1011       7     939     936     933    1008       7
     939    1095    1092    1167       4     939    1095   -1092    1167       3
     939    1095   -1092    1167       5     936     933     927    1002      14
     936     939    1095    1170       2     936     918     924     942      14
     933     927     930    1005       3     933     927     924     942      14
     933     936     939    1017       3     930     927     933    1011       7
     930     927     933    1008       7     930     927     924     942       7
     927     933     936    1014      14     924     927     930    1005       3
     924     927     933    1011      14     924     927     933    1008      14
     924     918     936    1014      14     921     918     936    1014      10
     921     918     936     933      14     921     918     936     939       7
     921     918     924     927      14     921     918     924     996       7
     921     918     924     942      10     921     918     915     945      11
     918     936     933    1011      14     918     936     933    1008      14
     918     936     939    1017       3     918     924     927    1002      14
     915     918     936    1014       7     915     918     924     942       7
     915     945     948    1020      11     915     945     948    1023      11
     912     915     918     921      30     912     915    -918     921       3
     912     915    -918     921      31    1236    1155    1158    1239       6
    1230    1149    1152    1233       6    1230    1149    1155    1236       7
    1224    1140    1143    1227       8    1221    1140    1143    1227       8
    1218    1137    1140    1221       7    1218    1137    1140    1224       7
    1212    1131    1137    1218       7    1212    1131    1134    1215       6
    1209    1128    1155    1236       7    1209    1128    1131    1212       7
    1200    1119    1122    1203       7    1200    1119    1122    1206       7
    1197    1119    1122    1203       7    1197    1119    1122    1206       7
    1194    1116    1119    1200       9    1194    1116    1119    1197       9
    1191    1116    1119    1200       9    1191    1116    1119    1197       9
    1188    1113    1116    1194       7    1188    1113    1116    1191       7
    1185    1113    1116    1194       7    1185    1113    1116    1191       7
    1182    1104    1260    1335       2    1182    1104    1260    1257       2
    1179    1101    1104    1182       3    1179    1101    1104    1260       4
    1179    1101   -1104    1260       3    1179    1101   -1104    1260       5
    1176    1098    1101    1179      10    1173    1098    1101    1179      10
    1167    1092    1095    1170       3    1167    1092    1098    1176      10
    1167    1092    1098    1173      10    1161    1089    1092    1167       7
    1161    1110    1113    1185      11    1161    1110    1113    1188      11
    1158    1155    1149    1230       7    1158    1155    1128    1209      12
    1158    1155   -1128    1209      13    1155    1149    1152    1233      12
    1155    1149   -1152    1233      14    1155    1128    1131    1212       7
    1152    1149    1155    1236      12    1152    1149   -1155    1236      13
    1149    1155    1158    1239      12    1149    1155   -1158    1239      14
    1149    1155    1128    1209       7    1149    1146    1137    1218      17
    1146    1149    1152    1233       6    1146    1149    1155    1236      12
    1146    1149   -1155    1236      13    1146    1137    1131    1212      12
    1146    1137   -1131    1212      13    1146    1137    1140    1221      12
    1146    1137   -1140    1221      13    1146    1137    1140    1224      12
    1146    1137   -1140    1224      13    1143    1140    1137    1218      12
    1143    1140   -1137    1218      13    1140    1137    1131    1212       7
    1137    1146    1149    1230      17    1137    1131    1128    1209       7
    1137    1131    1134    1215      12    1137    1131   -1134    1215      14
    1137    1140    1143    1227      12    1137    1140   -1143    1227      14
    1134    1131    1128    1209      12    1134    1131   -1128    1209      13
    1134    1131    1137    1218      12    1134    1131   -1137    1218      13
    1131    1128    1155    1236       7    1131    1137    1140    1221       7
    1131    1137    1140    1224       7    1128    1155    1158    1239      12
    1128    1155   -1158    1239      14    1128    1155    1149    1230       7
    1128    1125    1122    1203      17    1128    1125    1122    1206      17
    1128    1131    1137    1218       7    1128    1131    1134    1215      12
    1128    1131   -1134    1215      14    1125    1122    1119    1200      12
    1125    1122   -1119    1200      13    1125    1122    1119    1197      12
    1125    1122   -1119    1197      13    1125    1128    1155    1236      12
    1125    1128   -1155    1236      13    1125    1128    1131    1212      12
    1125    1128   -1131    1212      13    1122    1125    1128    1209      17
    1122    1119    1116    1194      23    1122    1119    1116    1191      23
    1119    1116    1113    1185       7    1119    1116    1113    1188       7
    1116    1119    1122    1203       7    1116    1119    1122    1206       7
    1113    1116    1119    1200      23    1113    1116    1119    1197      23
    1110    1113    1116    1194       7    1110    1113    1116    1191       7
    1107    1089    1092    1167      10    1107    1089    1161    1164      30
    1107    1089   -1161    1164       3    1107    1089   -1161    1164      31
    1107    1089    1161    1110      11    1104    1101    1098    1176       7
    1104    1101    1098    1173       7    1104    1260    1257    1332       4
    1104    1260   -1257    1332       3    1104    1260   -1257    1332       5
    1101    1098    1092    1167      14    1101    1104    1260    1335       2
    1101    1083    1089    1107      14    1098    1092    1095    1170       3
    1098    1092    1089    1107      14    1098    1101    1104    1182       3
    1095    1092    1098    1176       7    1095    1092    1098    1173       7
    1095    1092    1089    1107       7    1092    1098    1101    1179      14
    1089    1092    1095    1170       3    1089    1092    1098    1176      14
    1089    1092    1098    1173      14    1089    1083    1101    1179      14
    1086    1083    1101    1179      10    1086    1083    1101    1098      14
    1086    1083    1101    1104       7    1086    1083    1089    1092      14
    1086    1083    1089    1161       7    1086    1083    1089    1107      10
    1086    1083    1080    1110      11    1083    1101    1098    1176      14
    1083    1101    1098    1173      14    1083    1101    1104    1182       3
    1083    1089    1092    1167      14    1080    1083    1101    1179       7
    1080    1083    1089    1107       7    1080    1110    1113    1185      11
    1080    1110    1113    1188      11    1077    1080    1083    1086      30
    1077    1080   -1083    1086       3    1077    1080   -1083    1086      31
    1401    1320    1323    1404       6    1395    1314    1317    1398       6
    1395    1314    1320    1401       7    1389    1305    1308    1392       8
    1386    1305    1308    1392       8    1383    1302    1305    1386       7
    1383    1302    1305    1389       7    1377    1296    1302    1383       7
    1377    1296    1299    1380       6    1374    1293    1320    1401       7
    1374    1293    1296    1377       7    1365    1284    1287    1368       7
    1365    1284    1287    1371       7    1362    1284    1287    1368       7
    1362    1284    1287    1371       7    1359    1281    1284    1365       9
    1359    1281    1284    1362       9    1356    1281    1284    1365       9
    1356    1281    1284    1362       9    1353    1278    1281    1359       7
    1353    1278    1281    1356       7    1350    1278    1281    1359       7
    1350    1278    1281    1356       7    1347    1269    1425    1500       2
    1347    1269    1425    1422       2    1344    1266    1269    1347       3
    1344    1266    1269    1425       4    1344    1266   -1269    1425       3
    1344    1266   -1269    1425       5    1341    1263    1266    1344      10
    1338    1263    1266    1344      10    1332    1257    1260    1335       3
    1332    1257    1263    1341      10    1332    1257    1263    1338      10
    1326    1254    1257    1332       7    1326    1275    1278    1350      11
    1326    1275    1278    1353      11    1323    1320    1314    1395       7
    1323    1320    1293    1374      12    1323    1320   -1293    1374      13
    1320    1314    1317    1398      12    1320    1314   -1317    1398      14
    1320    1293    1296    1377       7    1317    1314    1320    1401      12
    1317    1314   -1320    1401      13    1314    1320    1323    1404      12
    1314    1320   -1323    1404      14    1314    1320    1293    1374       7
    1314    1311    1302    1383      17    1311    1314    1317    1398       6
    1311    1314    1320    1401      12    1311    1314   -1320    1401      13
    1311    1302    1296    1377      12    1311    1302   -1296    1377      13
    1311    1302    1305    1386      12    1311    1302   -1305    1386      13
    1311    1302    1305    1389      12    1311    1302   -1305    1389      13
    1308    1305    1302    1383      12    1308    1305   -1302    1383      13
    1305    1302    1296    1377       7    1302    1311    1314    1395      17
    1302    1296    1293    1374       7    1302    1296    1299    1380      12
    1302    1296   -1299    1380      14    1302    1305    1308    1392      12
    1302    1305   -1308    1392      14    1299    1296    1293    1374      12
    1299    1296   -1293    1374      13    1299    1296    1302    1383      12
    1299    1296   -1302    1383      13    1296    1293    1320    1401       7
    1296    1302    1305    1386       7    1296    1302    1305    1389       7
    1293    1320    1323    1404      12    1293    1320   -1323    1404      14
    1293    1320    1314    1395       7    1293    1290    1287    1368      17
    1293    1290    1287    1371      17    1293    1296    1302    1383       7
    1293    1296    1299    1380      12    1293    1296   -1299    1380      14
    1290    1287    1284    1365      12    1290    1287   -1284    1365      13
    1290    1287    1284    1362      12    1290    1287   -1284    1362      13
    1290    1293    1320    1401      12    1290    1293   -1320    1401      13
    1290    1293    1296    1377      12    1290    1293   -1296    1377      13
    1287    1290    1293    1374      17    1287    1284    1281    1359      23
    1287    1284    1281    1356      23    1284    1281    1278    1350       7
    1284    1281    1278    1353       7    1281    1284    1287    1368       7
    1281    1284    1287    1371       7    1278    1281    1284    1365      23
    1278    1281    1284    1362      23    1275    1278    1281    1359       7
    1275    1278    1281    1356       7    1272    1254    1257    1332      10
    1272    1254    1326    1329      30    1272    1254   -1326    1329       3
    1272    1254   -1326    1329      31    1272    1254    1326    1275      11
    1269    1266    1263    1341       7    1269    1266    1263    1338       7
    1269    1425    1422    1497       4    1269    1425   -1422    1497       3
    1269    1425   -1422    1497       5    1266    1263    1257    1332      14
    1266    1269    1425    1500       2    1266    1248    1254    1272      14
    1263    1257    1260    1335       3    1263    1257    1254    1272      14
    1263    1266    1269    1347       3    1260    1257    1263    1341       7
    1260    1257    1263    1338       7    1260    1257    1254    1272       7
    1257    1263    1266    1344      14    1254    1257    1260    1335       3
    1254    1257    1263    1341      14    1254    1257    1263    1338      14
    1254    1248    1266    1344      14    1251    1248    1266    1344      10
    1251    1248    1266    1263      14    1251    1248    1266    1269       7
    1251    1248    1254    1257      14    1251    1248    1254    1326       7
    1251    1248    1254    1272      10    1251    1248    1245    1275      11
    1248    1266    1263    1341      14    1248    1266    1263    1338      14
    1248    1266    1269    1347       3    1248    1254    1257    1332      14
    1245    1248    1266    1344       7    1245    1248    1254    1272       7
    1245    1275    1278    1350      11    1245    1275    1278    1353      11
    1242    1245    1248    1251      30    1242    1245   -1248    1251       3
    1242    1245   -1248    1251      31    1566    1485    1488    1569       6
    1560    1479    1482    1563       6    1560    1479    1485    1566       7
    1554    1470    1473    1557       8    1551    1470    1473    1557       8
    1548    1467    1470    1551       7    1548    1467    1470    1554       7
    1542    1461    1467    1548       7    1542    1461    1464    1545       6
    1539    1458    1485    1566       7    1539    1458    1461    1542       7
    1530    1449    1452    1533       7    1530    1449    1452    1536       7
    1527    1449    1452    1533       7    1527    1449    1452    1536       7
    1524    1446    1449    1530       9    1524    1446    1449    1527       9
    1521    1446    1449    1530       9    1521    1446    1449    1527       9
    1518    1443    1446    1524       7    1518    1443    1446    1521       7
    1515    1443    1446    1524       7    1515    1443    1446    1521       7
    1512    1434    1590    1665       2    1512    1434    1590    1587       2
    1509    1431    1434    1512       3    1509    1431    1434    1590       4
    1509    1431   -1434    1590       3    1509    1431   -1434    1590       5
    1506    1428    1431    1509      10    1503    1428    1431    1509      10
    1497    1422    1425    1500       3    1497    1422    1428    1506      10
    1497    1422    1428    1503      10    1491    1419    1422    1497       7
    1491    1440    1443    1515      11    1491    1440    1443    1518      11
    1488    1485    1479    1560       7    1488    1485    1458    1539      12
    1488    1485   -1458    1539      13    1485    1479    1482    1563      12
    1485    1479   -1482    1563      14    1485    1458    1461    1542       7
    1482    1479    1485    1566      12    1482    1479   -1485    1566      13
    1479    1485    1488    1569      12    1479    1485   -1488    1569      14
    1479    1485    1458    1539       7    1479    1476    1467    1548      17
    1476    1479    1482    1563       6    1476    1479    1485    1566      12
    1476    1479   -1485    1566      13    1476    1467    1461    1542      12
    1476    1467   -1461    1542      13    1476    1467    1470    1551      12
    1476    1467   -1470    1551      13    1476    1467    1470    1554      12
    1476    1467   -1470    1554      13    1473    1470    1467    1548      12
    1473    1470   -1467    1548      13    1470    1467    1461    1542       7
    1467    1476    1479    1560      17    1467    1461    1458    1539       7
    1467    1461    1464    1545      12    1467    1461   -1464    1545      14
    1467    1470    1473    1557      12    1467    1470   -1473    1557      14
    1464    1461    1458    1539      12    1464    1461   -1458    1539      13
    1464    1461    1467    1548      12    1464    1461   -1467    1548      13
    1461    1458    1485    1566       7    1461    1467    1470    1551       7
    1461    1467    1470    1554       7    1458    1485    1488    1569      12
    1458    1485   -1488    1569      14    1458    1485    1479    1560       7
    1458    1455    1452    1533      17    1458    1455    1452    1536      17
    1458    1461    1467    1548       7    1458    1461    1464    1545      12
    1458    1461   -1464    1545      14    1455    1452    1449    1530      12
    1455    1452   -1449    1530      13    1455    1452    1449    1527      12
    1455    1452   -1449    1527      13    1455    1458    1485    1566      12
    1455    1458   -1485    1566      13    1455    1458    1461    1542      12
    1455    1458   -1461    1542      13    1452    1455    1458    1539      17
    1452    1449    1446    1524      23    1452    1449    1446    1521      23
    1449    1446    1443    1515       7    1449    1446    1443    1518       7
    1446    1449    1452    1533       7    1446    1449    1452    1536       7
    1443    1446    1449    1530      23    1443    1446    1449    1527      23
    1440    1443    1446    1524       7    1440    1443    1446    1521       7
    1437    1419    1422    1497      10    1437    1419    1491    1494      30
    1437    1419   -1491    1494       3    1437    1419   -1491    1494      31
    1437    1419    1491    1440      11    1434    1431    1428    1506       7
    1434    1431    1428    1503       7    1434    1590    1587    1662       4
    1434    1590   -1587    1662       3    1434    1590   -1587    1662       5
    1431    1428    1422    1497      14    1431    1434    1590    1665       2
    1431    1413    1419    1437      14    1428    1422    1425    1500       3
    1428    1422    1419    1437      14    1428    1431    1434    1512       3
    1425    1422    1428    1506       7    1425    1422    1428    1503       7
    1425    1422    1419    1437       7    1422    1428    1431    1509      14
    1419    1422    1425    1500       3    1419    1422    1428    1506      14
    1419    1422    1428    1503      14    1419    1413    1431    1509      14
    1416    1413    1431    1509      10    1416    1413    1431    1428      14
    1416    1413    1431    1434       7    1416    1413    1419    1422      14
    1416    1413    1419    1491       7    1416    1413    1419    1437      10
    1416    1413    1410    1440      11    1413    1431    1428    1506      14
    1413    1431    1428    1503      14    1413    1431    1434    1512       3
    1413    1419    1422    1497      14    1410    1413    1431    1509       7
    1410    1413    1419    1437       7    1410    1440    1443    1515      11
    1410    1440    1443    1518      11    1407    1410    1413    1416      30
    1407    1410   -1413    1416       3    1407    1410   -1413    1416      31
    1731    1650    1653    1734       6    1725    1644    1647    1728       6
    1725    1644    1650    1731       7    1719    1635    1638    1722       8
    1716    1635    1638    1722       8    1713    1632    1635    1716       7
    1713    1632    1635    1719       7    1707    1626    1632    1713       7
    1707    1626    1629    1710       6    1704    1623    1650    1731       7
    1704    1623    1626    1707       7    1695    1614    1617    1698       7
    1695    1614    1617    1701       7    1692    1614    1617    1698       7
    1692    1614    1617    1701       7    1689    1611    1614    1695       9
    1689    1611    1614    1692       9    1686    1611    1614    1695       9
    1686    1611    1614    1692       9    1683    1608    1611    1689       7
    1683    1608    1611    1686       7    1680    1608    1611    1689       7
    1680    1608    1611    1686       7    1677    1599    1737    1740       2
    1677    1599    1737    1743       2    1674    1596    1599    1677       3
    1674    1596    1599    1737       4    1674    1596   -1599    1737       3
    1674    1596   -1599    1737       5    1671    1593    1596    1674      10
    1668    1593    1596    1674      10    1662    1587    1590    1665       3
    1662    1587    1593    1671      10    1662    1587    1593    1668      10
    1656    1584    1587    1662       7    1656    1605    1608    1680      11
    1656    1605    1608    1683      11    1653    1650    1644    1725       7
    1653    1650    1623    1704      12    1653    1650   -1623    1704      13
    1650    1644    1647    1728      12    1650    1644   -1647    1728      14
    1650    1623    1626    1707       7    1647    1644    1650    1731      12
    1647    1644   -1650    1731      13    1644    1650    1653    1734      12
    1644    1650   -1653    1734      14    1644    1650    1623    1704       7
    1644    1641    1632    1713      17    1641    1644    1647    1728       6
    1641    1644    1650    1731      12    1641    1644   -1650    1731      13
    1641    1632    1626    1707      12    1641    1632   -1626    1707      13
    1641    1632    1635    1716      12    1641    1632   -1635    1716      13
    1641    1632    1635    1719      12    1641    1632   -1635    1719      13
    1638    1635    1632    1713      12    1638    1635   -1632    1713      13
    1635    1632    1626    1707       7    1632    1641    1644    1725      17
    1632    1626    1623    1704       7    1632    1626    1629    1710      12
    1632    1626   -1629    1710      14    1632    1635    1638    1722      12
    1632    1635   -1638    1722      14    1629    1626    1623    1704      12
    1629    1626   -1623    1704      13    1629    1626    1632    1713      12
    1629    1626   -1632    1713      13    1626    1623    1650    1731       7
    1626    1632    1635    1716       7    1626    1632    1635    1719       7
    1623    1650    1653    1734      12    1623    1650   -1653    1734      14
    1623    1650    1644    1725       7    1623    1620    1617    1698      17
    1623    1620    1617    1701      17    1623    1626    1632    1713       7
    1623    1626    1629    1710      12    1623    1626   -1629    1710      14
    1620    1617    1614    1695      12    1620    1617   -1614    1695      13
    1620    1617    1614    1692      12    1620    1617   -1614    1692      13
    1620    1623    1650    1731      12    1620    1623   -1650    1731      13
    1620    1623    1626    1707      12    1620    1623   -1626    1707      13
    1617    1620    1623    1704      17    1617    1614    1611    1689      23
    1617    1614    1611    1686      23    1614    1611    1608    1680       7
    1614    1611    1608    1683       7    1611    1614    1617    1698       7
    1611    1614    1617    1701       7    1608    1611    1614    1695      23
    1608    1611    1614    1692      23    1605    1608    1611    1689       7
    1605    1608    1611    1686       7    1602    1584    1587    1662      10
    1602    1584    1656    1659      30    1602    1584   -1656    1659       3
    1602    1584   -1656    1659      31    1602    1584    1656    1605      11
    1599    1596    1593    1671       7    1599    1596    1593    1668       7
    1596    1593    1587    1662      14    1596    1599    1737    1740       2
    1596    1599    1737    1743       2    1596    1578    1584    1602      14
    1593    1587    1590    1665       3    1593    1587    1584    1602      14
    1593    1596    1599    1677       3    1590    1587    1593    1671       7
    1590    1587    1593    1668       7    1590    1587    1584    1602       7
    1587    1593    1596    1674      14    1584    1587    1590    1665       3
    1584    1587    1593    1671      14    1584    1587    1593    1668      14
    1584    1578    1596    1674      14    1581    1578    1596    1674      10
    1581    1578    1596    1593      14    1581    1578    1596    1599       7
    1581    1578    1584    1587      14    1581    1578    1584    1656       7
    1581    1578    1584    1602      10    1581    1578    1575    1605      11
    1578    1596    1593    1671      14    1578    1596    1593    1668      14
    1578    1596    1599    1677       3    1578    1584    1587    1662      14
    1575    1578    1596    1674       7    1575    1578    1584    1602       7
    1575    1605    1608    1680      11    1575    1605    1608    1683      11
    1572    1575    1578    1581      30    1572    1575   -1578    1581       3
    1572    1575   -1578    1581      31    1752    1746    1773    1848       2
    1752    1746    1773    1770       2    1749    1746    1773    1848       2
    1749    1746    1773    1770       2    1746    1773    1770    1845       4
    1746    1773   -1770    1845       3    1746    1773   -1770    1845       5
    1914    1833    1836    1917       6    1908    1827    1830    1911       6
    1908    1827    1833    1914       7    1902    1818    1821    1905       8
    1899    1818    1821    1905       8    1896    1815    1818    1899       7
    1896    1815    1818    1902       7    1890    1809    1815    1896       7
    1890    1809    1812    1893       6    1887    1806    1833    1914       7
    1887    1806    1809    1890       7    1878    1797    1800    1881       7
    1878    1797    1800    1884       7    1875    1797    1800    1881       7
    1875    1797    1800    1884       7    1872    1794    1797    1878       9
    1872    1794    1797    1875       9    1869    1794    1797    1878       9
    1869    1794    1797    1875       9    1866    1791    1794    1872       7
    1866    1791    1794    1869       7    1863    1791    1794    1872       7
    1863    1791    1794    1869       7    1860    1782    1938    2013       2
    1860    1782    1938    1935       2    1857    1779    1782    1860       3
    1857    1779    1782    1938       4    1857    1779   -1782    1938       3
    1857    1779   -1782    1938       5    1854    1776    1779    1857      10
    1851    1776    1779    1857      10    1845    1770    1773    1848       3
    1845    1770    1776    1854      10    1845    1770    1776    1851      10
    1839    1767    1770    1845       7    1839    1788    1791    1863      11
    1839    1788    1791    1866      11    1836    1833    1827    1908       7
    1836    1833    1806    1887      12    1836    1833   -1806    1887      13
    1833    1827    1830    1911      12    1833    1827   -1830    1911      14
    1833    1806    1809    1890       7    1830    1827    1833    1914      12
    1830    1827   -1833    1914      13    1827    1833    1836    1917      12
    1827    1833   -1836    1917      14    1827    1833    1806    1887       7
    1827    1824    1815    1896      17    1824    1827    1830    1911       6
    1824    1827    1833    1914      12    1824    1827   -1833    1914      13
    1824    1815    1809    1890      12    1824    1815   -1809    1890      13
    1824    1815    1818    1899      12    1824    1815   -1818    1899      13
    1824    1815    1818    1902      12    1824    1815   -1818    1902      13
    1821    1818    1815    1896      12    1821    1818   -1815    1896      13
    1818    1815    1809    1890       7    1815    1824    1827    1908      17
    1815    1809    1806    1887       7    1815    1809    1812    1893      12
    1815    1809   -1812    1893      14    1815    1818    1821    1905      12
    1815    1818   -1821    1905      14    1812    1809    1806    1887      12
    1812    1809   -1806    1887      13    1812    1809    1815    1896      12
    1812    1809   -1815    1896      13    1809    1806    1833    1914       7
    1809    1815    1818    1899       7    1809    1815    1818    1902       7
    1806    1833    1836    1917      12    1806    1833   -1836    1917      14
    1806    1833    1827    1908       7    1806    1803    1800    1881      17
    1806    1803    1800    1884      17    1806    1809    1815    1896       7
    1806    1809    1812    1893      12    1806    1809   -1812    1893      14
    1803    1800    1797    1878      12    1803    1800   -1797    1878      13
    1803    1800    1797    1875      12    1803    1800   -1797    1875      13
    1803    1806    1833    1914      12    1803    1806   -1833    1914      13
    1803    1806    1809    1890      12    1803    1806   -1809    1890      13
    1800    1803    1806    1887      17    1800    1797    1794    1872      23
    1800    1797    1794    1869      23    1797    1794    1791    1863       7
    1797    1794    1791    1866       7    1794    1797    1800    1881       7
    1794    1797    1800    1884       7    1791    1794    1797    1878      23
    1791    1794    1797    1875      23    1788    1791    1794    1872       7
    1788    1791    1794    1869       7    1785    1767    1770    1845      10
    1785    1767    1839    1842      30    1785    1767   -1839    1842       3
    1785    1767   -1839    1842      31    1785    1767    1839    1788      11
    1782    1779    1776    1854       7    1782    1779    1776    1851       7
    1782    1938    1935    2010       4    1782    1938   -1935    2010       3
    1782    1938   -1935    2010       5    1779    1776    1770    1845      14
    1779    1782    1938    2013       2    1779    1761    1767    1785      14
    1776    1770    1773    1848       3    1776    1770    1767    1785      14
    1776    1779    1782    1860       3    1773    1770    1776    1854       7
    1773    1770    1776    1851       7    1773    1770    1767    1785       7
    1770    1776    1779    1857      14    1767    1770    1773    1848       3
    1767    1770    1776    1854      14    1767    1770    1776    1851      14
    1767    1761    1779    1857      14    1764    1761    1779    1857      10
    1764    1761    1779    1776      14    1764    1761    1779    1782       7
    1764    1761    1767    1770      14    1764    1761    1767    1839       7
    1764    1761    1767    1785      10    1764    1761    1758    1788      11
    1761    1779    1776    1854      14    1761    1779    1776    1851      14
    1761    1779    1782    1860       3    1761    1767    1770    1845      14
    1758    1761    1779    1857       7    1758    1761    1767    1785       7
    1758    1788    1791    1863      11    1758    1788    1791    1866      11
    1755    1758    1761    1764      30    1755    1758   -1761    1764       3
    1755    1758   -1761    1764      31    2079    1998    2001    2082       6
    2073    1992    1995    2076       6    2073    1992    1998    2079       7
    2067    1983    1986    2070       8    2064    1983    1986    2070       8
    2061    1980    1983    2064       7    2061    1980    1983    2067       7
    2055    1974    1980    2061       7    2055    1974    1977    2058       6
    2052    1971    1998    2079       7    2052    1971    1974    2055       7
    2043    1962    1965    2046       7    2043    1962    1965    2049       7
    2040    1962    1965    2046       7    2040    1962    1965    2049       7
    2037    1959    1962    2043       9    2037    1959    1962    2040       9
    2034    1959    1962    2043       9    2034    1959    1962    2040       9
    2031    1956    1959    2037       7    2031    1956    1959    2034       7
    2028    1956    1959    2037       7    2028    1956    1959    2034       7
    2025    1947    2103    2178       2    2025    1947    2103    2100       2
    2022    1944    1947    2025       3    2022    1944    1947    2103       4
    2022    1944   -1947    2103       3    2022    1944   -1947    2103       5
    2019    1941    1944    2022      10    2016    1941    1944    2022      10
    2010    1935    1938    2013       3    2010    1935    1941    2019      10
    2010    1935    1941    2016      10    2004    1932    1935    2010       7
    2004    1953    1956    2028      11    2004    1953    1956    2031      11
    2001    1998    1992    2073       7    2001    1998    1971    2052      12
    2001    1998   -1971    2052      13    1998    1992    1995    2076      12
    1998    1992   -1995    2076      14    1998    1971    1974    2055       7
    1995    1992    1998    2079      12    1995    1992   -1998    2079      13
    1992    1998    2001    2082      12    1992    1998   -2001    2082      14
    1992    1998    1971    2052       7    1992    1989    1980    2061      17
    1989    1992    1995    2076       6    1989    1992    1998    2079      12
    1989    1992   -1998    2079      13    1989    1980    1974    2055      12
    1989    1980   -1974    2055      13    1989    1980    1983    2064      12
    1989    1980   -1983    2064      13    1989    1980    1983    2067      12
    1989    1980   -1983    2067      13    1986    1983    1980    2061      12
    1986    1983   -1980    2061      13    1983    1980    1974    2055       7
    1980    1989    1992    2073      17    1980    1974    1971    2052       7
    1980    1974    1977    2058      12    1980    1974   -1977    2058      14
    1980    1983    1986    2070      12    1980    1983   -1986    2070      14
    1977    1974    1971    2052      12    1977    1974   -1971    2052      13
    1977    1974    1980    2061      12    1977    1974   -1980    2061      13
    1974    1971    1998    2079       7    1974    1980    1983    2064       7
    1974    1980    1983    2067       7    1971    1998    2001    2082      12
    1971    1998   -2001    2082      14    1971    1998    1992    2073       7
    1971    1968    1965    2046      17    1971    1968    1965    2049      17
    1971    1974    1980    2061       7    1971    1974    1977    2058      12
    1971    1974   -1977    2058      14    1968    1965    1962    2043      12
    1968    1965   -1962    2043      13    1968    1965    1962    2040      12
    1968    1965   -1962    2040      13    1968    1971    1998    2079      12
    1968    1971   -1998    2079      13    1968    1971    1974    2055      12
    1968    1971   -1974    2055      13    1965    1968    1971    2052      17
    1965    1962    1959    2037      23    1965    1962    1959    2034      23
    1962    1959    1956    2028       7    1962    1959    1956    2031       7
    1959    1962    1965    2046       7    1959    1962    1965    2049       7
    1956    1959    1962    2043      23    1956    1959    1962    2040      23
    1953    1956    1959    2037       7    1953    1956    1959    2034       7
    1950    1932    1935    2010      10    1950    1932    2004    2007      30
    1950    1932   -2004    2007       3    1950    1932   -2004    2007      31
    1950    1932    2004    1953      11    1947    1944    1941    2019       7
    1947    1944    1941    2016       7    1947    2103    2100    2175       4
    1947    2103   -2100    2175       3    1947    2103   -2100    2175       5
    1944    1941    1935    2010      14    1944    1947    2103    2178       2
    1944    1926    1932    1950      14    1941    1935    1938    2013       3
    1941    1935    1932    1950      14    1941    1944    1947    2025       3
    1938    1935    1941    2019       7    1938    1935    1941    2016       7
    1938    1935    1932    1950       7    1935    1941    1944    2022      14
    1932    1935    1938    2013       3    1932    1935    1941    2019      14
    1932    1935    1941    2016      14    1932    1926    1944    2022      14
    1929    1926    1944    2022      10    1929    1926    1944    1941      14
    1929    1926    1944    1947       7    1929    1926    1932    1935      14
    1929    1926    1932    2004       7    1929    1926    1932    1950      10
    1929    1926    1923    1953      11    1926    1944    1941    2019      14
    1926    1944    1941    2016      14    1926    1944    1947    2025       3
    1926    1932    1935    2010      14    1923    1926    1944    2022       7
    1923    1926    1932    1950       7    1923    1953    1956    2028      11
    1923    1953    1956    2031      11    1920    1923    1926    1929      30
    1920    1923   -1926    1929       3    1920    1923   -1926    1929      31
    2244    2163    2166    2247       6    2238    2157    2160    2241       6
    2238    2157    2163    2244       7    2232    2148    2151    2235       8
    2229    2148    2151    2235       8    2226    2145    2148    2229       7
    2226    2145    2148    2232       7    2220    2139    2145    2226       7
    2220    2139    2142    2223       6    2217    2136    2163    2244       7
    2217    2136    2139    2220       7    2208    2127    2130    2211       7
    2208    2127    2130    2214       7    2205    2127    2130    2211       7
    2205    2127    2130    2214       7    2202    2124    2127    2208       9
    2202    2124    2127    2205       9    2199    2124    2127    2208       9
    2199    2124    2127    2205       9    2196    2121    2124    2202       7
    2196    2121    2124    2199       7    2193    2121    2124    2202       7
    2193    2121    2124    2199       7    2190    2112    2268    2343       2
    2190    2112    2268    2265       2    2187    2109    2112    2190       3
    2187    2109    2112    2268       4    2187    2109   -2112    2268       3
    2187    2109   -2112    2268       5    2184    2106    2109    2187      10
    2181    2106    2109    2187      10    2175    2100    2103    2178       3
    2175    2100    2106    2184      10    2175    2100    2106    2181      10
    2169    2097    2100    2175       7    2169    2118    2121    2193      11
    2169    2118    2121    2196      11    2166    2163    2157    2238       7
    2166    2163    2136    2217      12    2166    2163   -2136    2217      13
    2163    2157    2160    2241      12    2163    2157   -2160    2241      14
    2163    2136    2139    2220       7    2160    2157    2163    2244      12
    2160    2157   -2163    2244      13    2157    2163    2166    2247      12
    2157    2163   -2166    2247      14    2157    2163    2136    2217       7
    2157    2154    2145    2226      17    2154    2157    2160    2241       6
    2154    2157    2163    2244      12    2154    2157   -2163    2244      13
    2154    2145    2139    2220      12    2154    2145   -2139    2220      13
    2154    2145    2148    2229      12    2154    2145   -2148    2229      13
    2154    2145    2148    2232      12    2154    2145   -2148    2232      13
    2151    2148    2145    2226      12    2151    2148   -2145    2226      13
    2148    2145    2139    2220       7    2145    2154    2157    2238      17
    2145    2139    2136    2217       7    2145    2139    2142    2223      12
    2145    2139   -2142    2223      14    2145    2148    2151    2235      12
    2145    2148   -2151    2235      14    2142    2139    2136    2217      12
    2142    2139   -2136    2217      13    2142    2139    2145    2226      12
    2142    2139   -2145    2226      13    2139    2136    2163    2244       7
    2139    2145    2148    2229       7    2139    2145    2148    2232       7
    2136    2163    2166    2247      12    2136    2163   -2166    2247      14
    2136    2163    2157    2238       7    2136    2133    2130    2211      17
    2136    2133    2130    2214      17    2136    2139    2145    2226       7
    2136    2139    2142    2223      12    2136    2139   -2142    2223      14
    2133    2130    2127    2208      12    2133    2130   -2127    2208      13
    2133    2130    2127    2205      12    2133    2130   -2127    2205      13
    2133    2136    2163    2244      12    2133    2136   -2163    2244      13
    2133    2136    2139    2220      12    2133    2136   -2139    2220      13
    2130    2133    2136    2217      17    2130    2127    2124    2202      23
    2130    2127    2124    2199      23    2127    2124    2121    2193       7
    2127    2124    2121    2196       7    2124    2127    2130    2211       7
    2124    2127    2130    2214       7    2121    2124    2127    2208      23
    2121    2124    2127    2205      23    2118    2121    2124    2202       7
    2118    2121    2124    2199       7    2115    2097    2100    2175      10
    2115    2097    2169    2172      30    2115    2097   -2169    2172       3
    2115    2097   -2169    2172      31    2115    2097    2169    2118      11
    2112    2109    2106    2184       7    2112    2109    2106    2181       7
    2112    2268    2265    2340       4    2112    2268   -2265    2340       3
    2112    2268   -2265    2340       5    2109    2106    2100    2175      14
    2109    2112    2268    2343       2    2109    2091    2097    2115      14
    2106    2100    2103    2178       3    2106    2100    2097    2115      14
    2106    2109    2112    2190       3    2103    2100    2106    2184       7
    2103    2100    2106    2181       7    2103    2100    2097    2115       7
    2100    2106    2109    2187      14    2097    2100    2103    2178       3
    2097    2100    2106    2184      14    2097    2100    2106    2181      14
    2097    2091    2109    2187      14    2094    2091    2109    2187      10
    2094    2091    2109    2106      14    2094    2091    2109    2112       7
    2094    2091    2097    2100      14    2094    2091    2097    2169       7
    2094    2091    2097    2115      10    2094    2091    2088    2118      11
    2091    2109    2106    2184      14    2091    2109    2106    2181      14
    2091    2109    2112    2190       3    2091    2097    2100    2175      14
    2088    2091    2109    2187       7    2088    2091    2097    2115       7
    2088    2118    2121    2193      11    2088    2118    2121    2196      11
    2085    2088    2091    2094      30    2085    2088   -2091    2094       3
    2085    2088   -2091    2094      31    2409    2328    2331    2412       6
    2403    2322    2325    2406       6    2403    2322    2328    2409       7
    2397    2313    2316    2400       8    2394    2313    2316    2400       8
    2391    2310    2313    2394       7    2391    2310    2313    2397       7
    2385    2304    2310    2391       7    2385    2304    2307    2388       6
    2382    2301    2328    2409       7    2382    2301    2304    2385       7
    2373    2292    2295    2376       7    2373    2292    2295    2379       7
    2370    2292    2295    2376       7    2370    2292    2295    2379       7
    2367    2289    2292    2373       9    2367    2289    2292    2370       9
    2364    2289    2292    2373       9    2364    2289    2292    2370       9
    2361    2286    2289    2367       7    2361    2286    2289    2364       7
    2358    2286    2289    2367       7    2358    2286    2289    2364       7
    2355    2277    2433    2508       2    2355    2277    2433    2430       2
    2352    2274    2277    2355       3    2352    2274    2277    2433       4
    2352    2274   -2277    2433       3    2352    2274   -2277    2433       5
    2349    2271    2274    2352      10    2346    2271    2274    2352      10
    2340    2265    2268    2343       3    2340    2265    2271    2349      10
    2340    2265    2271    2346      10    2334    2262    2265    2340       7
    2334    2283    2286    2358      11    2334    2283    2286    2361      11
    2331    2328    2322    2403       7    2331    2328    2301    2382      12
    2331    2328   -2301    2382      13    2328    2322    2325    2406      12
    2328    2322   -2325    2406      14    2328    2301    2304    2385       7
    2325    2322    2328    2409      12    2325    2322   -2328    2409      13
    2322    2328    2331    2412      12    2322    2328   -2331    2412      14
    2322    2328    2301    2382       7    2322    2319    2310    2391      17
    2319    2322    2325    2406       6    2319    2322    2328    2409      12
    2319    2322   -2328    2409      13    2319    2310    2304    2385      12
    2319    2310   -2304    2385      13    2319    2310    2313    2394      12
    2319    2310   -2313    2394      13    2319    2310    2313    2397      12
    2319    2310   -2313    2397      13    2316    2313    2310    2391      12
    2316    2313   -2310    2391      13    2313    2310    2304    2385       7
    2310    2319    2322    2403      17    2310    2304    2301    2382       7
    2310    2304    2307    2388      12    2310    2304   -2307    2388      14
    2310    2313    2316    2400      12    2310    2313   -2316    2400      14
    2307    2304    2301    2382      12    2307    2304   -2301    2382      13
    2307    2304    2310    2391      12    2307    2304   -2310    2391      13
    2304    2301    2328    2409       7    2304    2310    2313    2394       7
    2304    2310    2313    2397       7    2301    2328    2331    2412      12
    2301    2328   -2331    2412      14    2301    2328    2322    2403       7
    2301    2298    2295    2376      17    2301    2298    2295    2379      17
    2301    2304    2310    2391       7    2301    2304    2307    2388      12
    2301    2304   -2307    2388      14    2298    2295    2292    2373      12
    2298    2295   -2292    2373      13    2298    2295    2292    2370      12
    2298    2295   -2292    2370      13    2298    2301    2328    2409      12
    2298    2301   -2328    2409      13    2298    2301    2304    2385      12
    2298    2301   -2304    2385      13    2295    2298    2301    2382      17
    2295    2292    2289    2367      23    2295    2292    2289    2364      23
    2292    2289    2286    2358       7    2292    2289    2286    2361       7
    2289    2292    2295    2376       7    2289    2292    2295    2379       7
    2286    2289    2292    2373      23    2286    2289    2292    2370      23
    2283    2286    2289    2367       7    2283    2286    2289    2364       7
    2280    2262    2265    2340      10    2280    2262    2334    2337      30
    2280    2262   -2334    2337       3    2280    2262   -2334    2337      31
    2280    2262    2334    2283      11    2277    2274    2271    2349       7
    2277    2274    2271    2346       7    2277    2433    2430    2505       4
    2277    2433   -2430    2505       3    2277    2433   -2430    2505       5
    2274    2271    2265    2340      14    2274    2277    2433    2508       2
    2274    2256    2262    2280      14    2271    2265    2268    2343       3
    2271    2265    2262    2280      14    2271    2274    2277    2355       3
    2268    2265    2271    2349       7    2268    2265    2271    2346       7
    2268    2265    2262    2280       7    2265    2271    2274    2352      14
    2262    2265    2268    2343       3    2262    2265    2271    2349      14
    2262    2265    2271    2346      14    2262    2256    2274    2352      14
    2259    2256    2274    2352      10    2259    2256    2274    2271      14
    2259    2256    2274    2277       7    2259    2256    2262    2265      14
    2259    2256    2262    2334       7    2259    2256    2262    2280      10
    2259    2256    2253    2283      11    2256    2274    2271    2349      14
    2256    2274    2271    2346      14    2256    2274    2277    2355       3
    2256    2262    2265    2340      14    2253    2256    2274    2352       7
    2253    2256    2262    2280       7    2253    2283    2286    2358      11
    2253    2283    2286    2361      11    2250    2253    2256    2259      30
    2250    2253   -2256    2259       3    2250    2253   -2256    2259      31
    2574    2493    2496    2577       6    2568    2487    2490    2571       6
    2568    2487    2493    2574       7    2562    2478    2481    2565       8
    2559    2478    2481    2565       8    2556    2475    2478    2559       7
    2556    2475    2478    2562       7    2550    2469    2475    2556       7
    2550    2469    2472    2553       6    2547    2466    2493    2574       7
    2547    2466    2469    2550       7    2538    2457    2460    2541       7
    2538    2457    2460    2544       7    2535    2457    2460    2541       7
    2535    2457    2460    2544       7    2532    2454    2457    2538       9
    2532    2454    2457    2535       9    2529    2454    2457    2538       9
    2529    2454    2457    2535       9    2526    2451    2454    2532       7
    2526    2451    2454    2529       7    2523    2451    2454    2532       7
    2523    2451    2454    2529       7    2520    2442    2598    2673       2
    2520    2442    2598    2595       2    2517    2439    2442    2520       3
    2517    2439    2442    2598       4    2517    2439   -2442    2598       3
    2517    2439   -2442    2598       5    2514    2436    2439    2517      10
    2511    2436    2439    2517      10    2505    2430    2433    2508       3
    2505    2430    2436    2514      10    2505    2430    2436    2511      10
    2499    2427    2430    2505       7    2499    2448    2451    2523      11
    2499    2448    2451    2526      11    2496    2493    2487    2568       7
    2496    2493    2466    2547      12    2496    2493   -2466    2547      13
    2493    2487    2490    2571      12    2493    2487   -2490    2571      14
    2493    2466    2469    2550       7    2490    2487    2493    2574      12
    2490    2487   -2493    2574      13    2487    2493    2496    2577      12
    2487    2493   -2496    2577      14    2487    2493    2466    2547       7
    2487    2484    2475    2556      17    2484    2487    2490    2571       6
    2484    2487    2493    2574      12    2484    2487   -2493    2574      13
    2484    2475    2469    2550      12    2484    2475   -2469    2550      13
    2484    2475    2478    2559      12    2484    2475   -2478    2559      13
    2484    2475    2478    2562      12    2484    2475   -2478    2562      13
    2481    2478    2475    2556      12    2481    2478   -2475    2556      13
    2478    2475    2469    2550       7    2475    2484    2487    2568      17
    2475    2469    2466    2547       7    2475    2469    2472    2553      12
    2475    2469   -2472    2553      14    2475    2478    2481    2565      12
    2475    2478   -2481    2565      14    2472    2469    2466    2547      12
    2472    2469   -2466    2547      13    2472    2469    2475    2556      12
    2472    2469   -2475    2556      13    2469    2466    2493    2574       7
    2469    2475    2478    2559       7    2469    2475    2478    2562       7
    2466    2493    2496    2577      12    2466    2493   -2496    2577      14
    2466    2493    2487    2568       7    2466    2463    2460    2541      17
    2466    2463    2460    2544      17    2466    2469    2475    2556       7
    2466    2469    2472    2553      12    2466    2469   -2472    2553      14
    2463    2460    2457    2538      12    2463    2460   -2457    2538      13
    2463    2460    2457    2535      12    2463    2460   -2457    2535      13
    2463    2466    2493    2574      12    2463    2466   -2493    2574      13
    2463    2466    2469    2550      12    2463    2466   -2469    2550      13
    2460    2463    2466    2547      17    2460    2457    2454    2532      23
    2460    2457    2454    2529      23    2457    2454    2451    2523       7
    2457    2454    2451    2526       7    2454    2457    2460    2541       7
    2454    2457    2460    2544       7    2451    2454    2457    2538      23
    2451    2454    2457    2535      23    2448    2451    2454    2532       7
    2448    2451    2454    2529       7    2445    2427    2430    2505      10
    2445    2427    2499    2502      30    2445    2427   -2499    2502       3
    2445    2427   -2499    2502      31    2445    2427    2499    2448      11
    2442    2439    2436    2514       7    2442    2439    2436    2511       7
    2442    2598    2595    2670       4    2442    2598   -2595    2670       3
    2442    2598   -2595    2670       5    2439    2436    2430    2505      14
    2439    2442    2598    2673       2    2439    2421    2427    2445      14
    2436    2430    2433    2508       3    2436    2430    2427    2445      14
    2436    2439    2442    2520       3    2433    2430    2436    2514       7
    2433    2430    2436    2511       7    2433    2430    2427    2445       7
    2430    2436    2439    2517      14    2427    2430    2433    2508       3
    2427    2430    2436    2514      14    2427    2430    2436    2511      14
    2427    2421    2439    2517      14    2424    2421    2439    2517      10
    2424    2421    2439    2436      14    2424    2421    2439    2442       7
    2424    2421    2427    2430      14    2424    2421    2427    2499       7
    2424    2421    2427    2445      10    2424    2421    2418    2448      11
    2421    2439    2436    2514      14    2421    2439    2436    2511      14
    2421    2439    2442    2520       3    2421    2427    2430    2505      14
    2418    2421    2439    2517       7    2418    2421    2427    2445       7
    2418    2448    2451    2523      11    2418    2448    2451    2526      11
    2415    2418    2421    2424      30    2415    2418   -2421    2424       3
    2415    2418   -2421    2424      31    2739    2658    2661    2742       6
    2733    2652    2655    2736       6    2733    2652    2658    2739       7
    2727    2643    2646    2730       8    2724    2643    2646    2730       8
    2721    2640    2643    2724       7    2721    2640    2643    2727       7
    2715    2634    2640    2721       7    2715    2634    2637    2718       6
    2712    2631    2658    2739       7    2712    2631    2634    2715       7
    2703    2622    2625    2706       7    2703    2622    2625    2709       7
    2700    2622    2625    2706       7    2700    2622    2625    2709       7
    2697    2619    2622    2703       9    2697    2619    2622    2700       9
    2694    2619    2622    2703       9    2694    2619    2622    2700       9
    2691    2616    2619    2697       7    2691    2616    2619    2694       7
    2688    2616    2619    2697       7    2688    2616    2619    2694       7
    2685    2607    2763    2838       2    2685    2607    2763    2760       2
    2682    2604    2607    2685       3    2682    2604    2607    2763       4
    2682    2604   -2607    2763       3    2682    2604   -2607    2763       5
    2679    2601    2604    2682      10    2676    2601    2604    2682      10
    2670    2595    2598    2673       3    2670    2595    2601    2679      10
    2670    2595    2601    2676      10    2664    2592    2595    2670       7
    2664    2613    2616    2688      11    2664    2613    2616    2691      11
    2661    2658    2652    2733       7    2661    2658    2631    2712      12
    2661    2658   -2631    2712      13    2658    2652    2655    2736      12
    2658    2652   -2655    2736      14    2658    2631    2634    2715       7
    2655    2652    2658    2739      12    2655    2652   -2658    2739      13
    2652    2658    2661    2742      12    2652    2658   -2661    2742      14
    2652    2658    2631    2712       7    2652    2649    2640    2721      17
    2649    2652    2655    2736       6    2649    2652    2658    2739      12
    2649    2652   -2658    2739      13    2649    2640    2634    2715      12
    2649    2640   -2634    2715      13    2649    2640    2643    2724      12
    2649    2640   -2643    2724      13    2649    2640    2643    2727      12
    2649    2640   -2643    2727      13    2646    2643    2640    2721      12
    2646    2643   -2640    2721      13    2643    2640    2634    2715       7
    2640    2649    2652    2733      17    2640    2634    2631    2712       7
    2640    2634    2637    2718      12    2640    2634   -2637    2718      14
    2640    2643    2646    2730      12    2640    2643   -2646    2730      14
    2637    2634    2631    2712      12    2637    2634   -2631    2712      13
    2637    2634    2640    2721      12    2637    2634   -2640    2721      13
    2634    2631    2658    2739       7    2634    2640    2643    2724       7
    2634    2640    2643    2727       7    2631    2658    2661    2742      12
    2631    2658   -2661    2742      14    2631    2658    2652    2733       7
    2631    2628    2625    2706      17    2631    2628    2625    2709      17
    2631    2634    2640    2721       7    2631    2634    2637    2718      12
    2631    2634   -2637    2718      14    2628    2625    2622    2703      12
    2628    2625   -2622    2703      13    2628    2625    2622    2700      12
    2628    2625   -2622    2700      13    2628    2631    2658    2739      12
    2628    2631   -2658    2739      13    2628    2631    2634    2715      12
    2628    2631   -2634    2715      13    2625    2628    2631    2712      17
    2625    2622    2619    2697      23    2625    2622    2619    2694      23
    2622    2619    2616    2688       7    2622    2619    2616    2691       7
    2619    2622    2625    2706       7    2619    2622    2625    2709       7
    2616    2619    2622    2703      23    2616    2619    2622    2700      23
    2613    2616    2619    2697       7    2613    2616    2619    2694       7
    2610    2592    2595    2670      10    2610    2592    2664    2667      30
    2610    2592   -2664    2667       3    2610    2592   -2664    2667      31
    2610    2592    2664    2613      11    2607    2604    2601    2679       7
    2607    2604    2601    2676       7    2607    2763    2760    2835       4
    2607    2763   -2760    2835       3    2607    2763   -2760    2835       5
    2604    2601    2595    2670      14    2604    2607    2763    2838       2
    2604    2586    2592    2610      14    2601    2595    2598    2673       3
    2601    2595    2592    2610      14    2601    2604    2607    2685       3
    2598    2595    2601    2679       7    2598    2595    2601    2676       7
    2598    2595    2592    2610       7    2595    2601    2604    2682      14
    2592    2595    2598    2673       3    2592    2595    2601    2679      14
    2592    2595    2601    2676      14    2592    2586    2604    2682      14
    2589    2586    2604    2682      10    2589    2586    2604    2601      14
    2589    2586    2604    2607       7    2589    2586    2592    2595      14
    2589    2586    2592    2664       7    2589    2586    2592    2610      10
    2589    2586    2583    2613      11    2586    2604    2601    2679      14
    2586    2604    2601    2676      14    2586    2604    2607    2685       3
    2586    2592    2595    2670      14    2583    2586    2604    2682       7
    2583    2586    2592    2610       7    2583    2613    2616    2688      11
    2583    2613    2616    2691      11    2580    2583    2586    2589      30
    2580    2583   -2586    2589       3    2580    2583   -2586    2589      31
    2904    2823    2826    2907       6    2898    2817    2820    2901       6
    2898    2817    2823    2904       7    2892    2808    2811    2895       8
    2889    2808    2811    2895       8    2886    2805    2808    2889       7
    2886    2805    2808    2892       7    2880    2799    2805    2886       7
    2880    2799    2802    2883       6    2877    2796    2823    2904       7
    2877    2796    2799    2880       7    2868    2787    2790    2871       7
    2868    2787    2790    2874       7    2865    2787    2790    2871       7
    2865    2787    2790    2874       7    2862    2784    2787    2868       9
    2862    2784    2787    2865       9    2859    2784    2787    2868       9
    2859    2784    2787    2865       9    2856    2781    2784    2862       7
    2856    2781    2784    2859       7    2853    2781    2784    2862       7
    2853    2781    2784    2859       7    2850    2772    2928    3003       2
    2850    2772    2928    2925       2    2847    2769    2772    2850       3
    2847    2769    2772    2928       4    2847    2769   -2772    2928       3
    2847    2769   -2772    2928       5    2844    2766    2769    2847      10
    2841    2766    2769    2847      10    2835    2760    2763    2838       3
    2835    2760    2766    2844      10    2835    2760    2766    2841      10
    2829    2757    2760    2835       7    2829    2778    2781    2853      11
    2829    2778    2781    2856      11    2826    2823    2817    2898       7
    2826    2823    2796    2877      12    2826    2823   -2796    2877      13
    2823    2817    2820    2901      12    2823    2817   -2820    2901      14
    2823    2796    2799    2880       7    2820    2817    2823    2904      12
    2820    2817   -2823    2904      13    2817    2823    2826    2907      12
    2817    2823   -2826    2907      14    2817    2823    2796    2877       7
    2817    2814    2805    2886      17    2814    2817    2820    2901       6
    2814    2817    2823    2904      12    2814    2817   -2823    2904      13
    2814    2805    2799    2880      12    2814    2805   -2799    2880      13
    2814    2805    2808    2889      12    2814    2805   -2808    2889      13
    2814    2805    2808    2892      12    2814    2805   -2808    2892      13
    2811    2808    2805    2886      12    2811    2808   -2805    2886      13
    2808    2805    2799    2880       7    2805    2814    2817    2898      17
    2805    2799    2796    2877       7    2805    2799    2802    2883      12
    2805    2799   -2802    2883      14    2805    2808    2811    2895      12
    2805    2808   -2811    2895      14    2802    2799    2796    2877      12
    2802    2799   -2796    2877      13    2802    2799    2805    2886      12
    2802    2799   -2805    2886      13    2799    2796    2823    2904       7
    2799    2805    2808    2889       7    2799    2805    2808    2892       7
    2796    2823    2826    2907      12    2796    2823   -2826    2907      14
    2796    2823    2817    2898       7    2796    2793    2790    2871      17
    2796    2793    2790    2874      17    2796    2799    2805    2886       7
    2796    2799    2802    2883      12    2796    2799   -2802    2883      14
    2793    2790    2787    2868      12    2793    2790   -2787    2868      13
    2793    2790    2787    2865      12    2793    2790   -2787    2865      13
    2793    2796    2823    2904      12    2793    2796   -2823    2904      13
    2793    2796    2799    2880      12    2793    2796   -2799    2880      13
    2790    2793    2796    2877      17    2790    2787    2784    2862      23
    2790    2787    2784    2859      23    2787    2784    2781    2853       7
    2787    2784    2781    2856       7    2784    2787    2790    2871       7
    2784    2787    2790    2874       7    2781    2784    2787    2868      23
    2781    2784    2787    2865      23    2778    2781    2784    2862       7
    2778    2781    2784    2859       7    2775    2757    2760    2835      10
    2775    2757    2829    2832      30    2775    2757   -2829    2832       3
    2775    2757   -2829    2832      31    2775    2757    2829    2778      11
    2772    2769    2766    2844       7    2772    2769    2766    2841       7
    2772    2928    2925    3000       4    2772    2928   -2925    3000       3
    2772    2928   -2925    3000       5    2769    2766    2760    2835      14
    2769    2772    2928    3003       2    2769    2751    2757    2775      14
    2766    2760    2763    2838       3    2766    2760    2757    2775      14
    2766    2769    2772    2850       3    2763    2760    2766    2844       7
    2763    2760    2766    2841       7    2763    2760    2757    2775       7
    2760    2766    2769    2847      14    2757    2760    2763    2838       3
    2757    2760    2766    2844      14    2757    2760    2766    2841      14
    2757    2751    2769    2847      14    2754    2751    2769    2847      10
    2754    2751    2769    2766      14    2754    2751    2769    2772       7
    2754    2751    2757    2760      14    2754    2751    2757    2829       7
    2754    2751    2757    2775      10    2754    2751    2748    2778      11
    2751    2769    2766    2844      14    2751    2769    2766    2841      14
    2751    2769    2772    2850       3    2751    2757    2760    2835      14
    2748    2751    2769    2847       7    2748    2751    2757    2775       7
    2748    2778    2781    2853      11    2748    2778    2781    2856      11
    2745    2748    2751    2754      30    2745    2748   -2751    2754       3
    2745    2748   -2751    2754      31    3069    2988    2991    3072       6
    3063    2982    2985    3066       6    3063    2982    2988    3069       7
    3057    2973    2976    3060       8    3054    2973    2976    3060       8
    3051    2970    2973    3054       7    3051    2970    2973    3057       7
    3045    2964    2970    3051       7    3045    2964    2967    3048       6
    3042    2961    2988    3069       7    3042    2961    2964    3045       7
    3033    2952    2955    3036       7    3033    2952    2955    3039       7
    3030    2952    2955    3036       7    3030    2952    2955    3039       7
    3027    2949    2952    3033       9    3027    2949    2952    3030       9
    3024    2949    2952    3033       9    3024    2949    2952    3030       9
    3021    2946    2949    3027       7    3021    2946    2949    3024       7
    3018    2946    2949    3027       7    3018    2946    2949    3024       7
    3015    2937    3093    3168       2    3015    2937    3093    3090       2
    3012    2934    2937    3015       3    3012    2934    2937    3093       4
    3012    2934   -2937    3093       3    3012    2934   -2937    3093       5
    3009    2931    2934    3012      10    3006    2931    2934    3012      10
    3000    2925    2928    3003       3    3000    2925    2931    3009      10
    3000    2925    2931    3006      10    2994    2922    2925    3000       7
    2994    2943    2946    3018      11    2994    2943    2946    3021      11
    2991    2988    2982    3063       7    2991    2988    2961    3042      12
    2991    2988   -2961    3042      13    2988    2982    2985    3066      12
    2988    2982   -2985    3066      14    2988    2961    2964    3045       7
    2985    2982    2988    3069      12    2985    2982   -2988    3069      13
    2982    2988    2991    3072      12    2982    2988   -2991    3072      14
    2982    2988    2961    3042       7    2982    2979    2970    3051      17
    2979    2982    2985    3066       6    2979    2982    2988    3069      12
    2979    2982   -2988    3069      13    2979    2970    2964    3045      12
    2979    2970   -2964    3045      13    2979    2970    2973    3054      12
    2979    2970   -2973    3054      13    2979    2970    2973    3057      12
    2979    2970   -2973    3057      13    2976    2973    2970    3051      12
    2976    2973   -2970    3051      13    2973    2970    2964    3045       7
    2970    2979    2982    3063      17    2970    2964    2961    3042       7
    2970    2964    2967    3048      12    2970    2964   -2967    3048      14
    2970    2973    2976    3060      12    2970    2973   -2976    3060      14
    2967    2964    2961    3042      12    2967    2964   -2961    3042      13
    2967    2964    2970    3051      12    2967    2964   -2970    3051      13
    2964    2961    2988    3069       7    2964    2970    2973    3054       7
    2964    2970    2973    3057       7    2961    2988    2991    3072      12
    2961    2988   -2991    3072      14    2961    2988    2982    3063       7
    2961    2958    2955    3036      17    2961    2958    2955    3039      17
    2961    2964    2970    3051       7    2961    2964    2967    3048      12
    2961    2964   -2967    3048      14    2958    2955    2952    3033      12
    2958    2955   -2952    3033      13    2958    2955    2952    3030      12
    2958    2955   -2952    3030      13    2958    2961    2988    3069      12
    2958    2961   -2988    3069      13    2958    2961    2964    3045      12
    2958    2961   -2964    3045      13    2955    2958    2961    3042      17
    2955    2952    2949    3027      23    2955    2952    2949    3024      23
    2952    2949    2946    3018       7    2952    2949    2946    3021       7
    2949    2952    2955    3036       7    2949    2952    2955    3039       7
    2946    2949    2952    3033      23    2946    2949    2952    3030      23
    2943    2946    2949    3027       7    2943    2946    2949    3024       7
    2940    2922    2925    3000      10    2940    2922    2994    2997      30
    2940    2922   -2994    2997       3    2940    2922   -2994    2997      31
    2940    2922    2994    2943      11    2937    2934    2931    3009       7
    2937    2934    2931    3006       7    2937    3093    3090    3165       4
    2937    3093   -3090    3165       3    2937    3093   -3090    3165       5
    2934    2931    2925    3000      14    2934    2937    3093    3168       2
    2934    2916    2922    2940      14    2931    2925    2928    3003       3
    2931    2925    2922    2940      14    2931    2934    2937    3015       3
    2928    2925    2931    3009       7    2928    2925    2931    3006       7
    2928    2925    2922    2940       7    2925    2931    2934    3012      14
    2922    2925    2928    3003       3    2922    2925    2931    3009      14
    2922    2925    2931    3006      14    2922    2916    2934    3012      14
    2919    2916    2934    3012      10    2919    2916    2934    2931      14
    2919    2916    2934    2937       7    2919    2916    2922    2925      14
    2919    2916    2922    2994       7    2919    2916    2922    2940      10
    2919    2916    2913    2943      11    2916    2934    2931    3009      14
    2916    2934    2931    3006      14    2916    2934    2937    3015       3
    2916    2922    2925    3000      14    2913    2916    2934    3012       7
    2913    2916    2922    2940       7    2913    2943    2946    3018      11
    2913    2943    2946    3021      11    2910    2913    2916    2919      30
    2910    2913   -2916    2919       3    2910    2913   -2916    2919      31
    3234    3153    3156    3237       6    3228    3147    3150    3231       6
    3228    3147    3153    3234       7    3222    3138    3141    3225       8
    3219    3138    3141    3225       8    3216    3135    3138    3219       7
    3216    3135    3138    3222       7    3210    3129    3135    3216       7
    3210    3129    3132    3213       6    3207    3126    3153    3234       7
    3207    3126    3129    3210       7    3198    3117    3120    3201       7
    3198    3117    3120    3204       7    3195    3117    3120    3201       7
    3195    3117    3120    3204       7    3192    3114    3117    3198       9
    3192    3114    3117    3195       9    3189    3114    3117    3198       9
    3189    3114    3117    3195       9    3186    3111    3114    3192       7
    3186    3111    3114    3189       7    3183    3111    3114    3192       7
    3183    3111    3114    3189       7    3180    3102    3258    3333       2
    3180    3102    3258    3255       2    3177    3099    3102    3180       3
    3177    3099    3102    3258       4    3177    3099   -3102    3258       3
    3177    3099   -3102    3258       5    3174    3096    3099    3177      10
    3171    3096    3099    3177      10    3165    3090    3093    3168       3
    3165    3090    3096    3174      10    3165    3090    3096    3171      10
    3159    3087    3090    3165       7    3159    3108    3111    3183      11
    3159    3108    3111    3186      11    3156    3153    3147    3228       7
    3156    3153    3126    3207      12    3156    3153   -3126    3207      13
    3153    3147    3150    3231      12    3153    3147   -3150    3231      14
    3153    3126    3129    3210       7    3150    3147    3153    3234      12
    3150    3147   -3153    3234      13    3147    3153    3156    3237      12
    3147    3153   -3156    3237      14    3147    3153    3126    3207       7
    3147    3144    3135    3216      17    3144    3147    3150    3231       6
    3144    3147    3153    3234      12    3144    3147   -3153    3234      13
    3144    3135    3129    3210      12    3144    3135   -3129    3210      13
    3144    3135    3138    3219      12    3144    3135   -3138    3219      13
    3144    3135    3138    3222      12    3144    3135   -3138    3222      13
    3141    3138    3135    3216      12    3141    3138   -3135    3216      13
    3138    3135    3129    3210       7    3135    3144    3147    3228      17
    3135    3129    3126    3207       7    3135    3129    3132    3213      12
    3135    3129   -3132    3213      14    3135    3138    3141    3225      12
    3135    3138   -3141    3225      14    3132    3129    3126    3207      12
    3132    3129   -3126    3207      13    3132    3129    3135    3216      12
    3132    3129   -3135    3216      13    3129    3126    3153    3234       7
    3129    3135    3138    3219       7    3129    3135    3138    3222       7
    3126    3153    3156    3237      12    3126    3153   -3156    3237      14
    3126    3153    3147    3228       7    3126    3123    3120    3201      17
    3126    3123    3120    3204      17    3126    3129    3135    3216       7
    3126    3129    3132    3213      12    3126    3129   -3132    3213      14
    3123    3120    3117    3198      12    3123    3120   -3117    3198      13
    3123    3120    3117    3195      12    3123    3120   -3117    3195      13
    3123    3126    3153    3234      12    3123    3126   -3153    3234      13
    3123    3126    3129    3210      12    3123    3126   -3129    3210      13
    3120    3123    3126    3207      17    3120    3117    3114    3192      23
    3120    3117    3114    3189      23    3117    3114    3111    3183       7
    3117    3114    3111    3186       7    3114    3117    3120    3201       7
    3114    3117    3120    3204       7    3111    3114    3117    3198      23
    3111    3114    3117    3195      23    3108    3111    3114    3192       7
    3108    3111    3114    3189       7    3105    3087    3090    3165      10
    3105    3087    3159    3162      30    3105    3087   -3159    3162       3
    3105    3087   -3159    3162      31    3105    3087    3159    3108      11
    3102    3099    3096    3174       7    3102    3099    3096    3171       7
    3102    3258    3255    3330       4    3102    3258   -3255    3330       3
    3102    3258   -3255    3330       5    3099    3096    3090    3165      14
    3099    3102    3258    3333       2    3099    3081    3087    3105      14
    3096    3090    3093    3168       3    3096    3090    3087    3105      14
    3096    3099    3102    3180       3    3093    3090    3096    3174       7
    3093    3090    3096    3171       7    3093    3090    3087    3105       7
    3090    3096    3099    3177      14    3087    3090    3093    3168       3
    3087    3090    3096    3174      14    3087    3090    3096    3171      14
    3087    3081    3099    3177      14    3084    3081    3099    3177      10
    3084    3081    3099    3096      14    3084    3081    3099    3102       7
    3084    3081    3087    3090      14    3084    3081    3087    3159       7
    3084    3081    3087    3105      10    3084    3081    3078    3108      11
    3081    3099    3096    3174      14    3081    3099    3096    3171      14
    3081    3099    3102    3180       3    3081    3087    3090    3165      14
    3078    3081    3099    3177       7    3078    3081    3087    3105       7
    3078    3108    3111    3183      11    3078    3108    3111    3186      11
    3075    3078    3081    3084      30    3075    3078   -3081    3084       3
    3075    3078   -3081    3084      31    3399    3318    3321    3402       6
    3393    3312    3315    3396       6    3393    3312    3318    3399       7
    3387    3303    3306    3390       8    3384    3303    3306    3390       8
    3381    3300    3303    3384       7    3381    3300    3303    3387       7
    3375    3294    3300    3381       7    3375    3294    3297    3378       6
    3372    3291    3318    3399       7    3372    3291    3294    3375       7
    3363    3282    3285    3366       7    3363    3282    3285    3369       7
    3360    3282    3285    3366       7    3360    3282    3285    3369       7
    3357    3279    3282    3363       9    3357    3279    3282    3360       9
    3354    3279    3282    3363       9    3354    3279    3282    3360       9
    3351    3276    3279    3357       7    3351    3276    3279    3354       7
    3348    3276    3279    3357       7    3348    3276    3279    3354       7
    3345    3267    3405    3408       2    3345    3267    3405    3411       2
    3342    3264    3267    3345       3    3342    3264    3267    3405       4
    3342    3264   -3267    3405       3    3342    3264   -3267    3405       5
    3339    3261    3264    3342      10    3336    3261    3264    3342      10
    3330    3255    3258    3333       3    3330    3255    3261    3339      10
    3330    3255    3261    3336      10    3324    3252    3255    3330       7
    3324    3273    3276    3348      11    3324    3273    3276    3351      11
    3321    3318    3312    3393       7    3321    3318    3291    3372      12
    3321    3318   -3291    3372      13    3318    3312    3315    3396      12
    3318    3312   -3315    3396      14    3318    3291    3294    3375       7
    3315    3312    3318    3399      12    3315    3312   -3318    3399      13
    3312    3318    3321    3402      12    3312    3318   -3321    3402      14
    3312    3318    3291    3372       7    3312    3309    3300    3381      17
    3309    3312    3315    3396       6    3309    3312    3318    3399      12
    3309    3312   -3318    3399      13    3309    3300    3294    3375      12
    3309    3300   -3294    3375      13    3309    3300    3303    3384      12
    3309    3300   -3303    3384      13    3309    3300    3303    3387      12
    3309    3300   -3303    3387      13    3306    3303    3300    3381      12
    3306    3303   -3300    3381      13    3303    3300    3294    3375       7
    3300    3309    3312    3393      17    3300    3294    3291    3372       7
    3300    3294    3297    3378      12    3300    3294   -3297    3378      14
    3300    3303    3306    3390      12    3300    3303   -3306    3390      14
    3297    3294    3291    3372      12    3297    3294   -3291    3372      13
    3297    3294    3300    3381      12    3297    3294   -3300    3381      13
    3294    3291    3318    3399       7    3294    3300    3303    3384       7
    3294    3300    3303    3387       7    3291    3318    3321    3402      12
    3291    3318   -3321    3402      14    3291    3318    3312    3393       7
    3291    3288    3285    3366      17    3291    3288    3285    3369      17
    3291    3294    3300    3381       7    3291    3294    3297    3378      12
    3291    3294   -3297    3378      14    3288    3285    3282    3363      12
    3288    3285   -3282    3363      13    3288    3285    3282    3360      12
    3288    3285   -3282    3360      13    3288    3291    3318    3399      12
    3288    3291   -3318    3399      13    3288    3291    3294    3375      12
    3288    3291   -3294    3375      13    3285    3288    3291    3372      17
    3285    3282    3279    3357      23    3285    3282    3279    3354      23
    3282    3279    3276    3348       7    3282    3279    3276    3351       7
    3279    3282    3285    3366       7    3279    3282    3285    3369       7
    3276    3279    3282    3363      23    3276    3279    3282    3360      23
    3273    3276    3279    3357       7    3273    3276    3279    3354       7
    3270    3252    3255    3330      10    3270    3252    3324    3327      30
    3270    3252   -3324    3327       3    3270    3252   -3324    3327      31
    3270    3252    3324    3273      11    3267    3264    3261    3339       7
    3267    3264    3261    3336       7    3264    3261    3255    3330      14
    3264    3267    3405    3408       2    3264    3267    3405    3411       2
    3264    3246    3252    3270      14    3261    3255    3258    3333       3
    3261    3255    3252    3270      14    3261    3264    3267    3345       3
    3258    3255    3261    3339       7    3258    3255    3261    3336       7
    3258    3255    3252    3270       7    3255    3261    3264    3342      14
    3252    3255    3258    3333       3    3252    3255    3261    3339      14
    3252    3255    3261    3336      14    3252    3246    3264    3342      14
    3249    3246    3264    3342      10    3249    3246    3264    3261      14
    3249    3246    3264    3267       7    3249    3246    3252    3255      14
    3249    3246    3252    3324       7    3249    3246    3252    3270      10
    3249    3246    3243    3273      11    3246    3264    3261    3339      14
    3246    3264    3261    3336      14    3246    3264    3267    3345       3
    3246    3252    3255    3330      14    3243    3246    3264    3342       7
    3243    3246    3252    3270       7    3243    3273    3276    3348      11
    3243    3273    3276    3351      11    3240    3243    3246    3249      30
    3240    3243   -3246    3249       3    3240    3243   -3246    3249      31
    3420    3414    3441    3516       2    3420    3414    3441    3438       2
    3417    3414    3441    3516       2    3417    3414    3441    3438       2
    3414    3441    3438    3513       4    3414    3441   -3438    3513       3
    3414    3441   -3438    3513       5    3582    3501    3504    3585       6
    3576    3495    3498    3579       6    3576    3495    3501    3582       7
    3570    3486    3489    3573       8    3567    3486    3489    3573       8
    3564    3483    3486    3567       7    3564    3483    3486    3570       7
    3558    3477    3483    3564       7    3558    3477    3480    3561       6
    3555    3474    3501    3582       7    3555    3474    3477    3558       7
    3546    3465    3468    3549       7    3546    3465    3468    3552       7
    3543    3465    3468    3549       7    3543    3465    3468    3552       7
    3540    3462    3465    3546       9    3540    3462    3465    3543       9
    3537    3462    3465    3546       9    3537    3462    3465    3543       9
    3534    3459    3462    3540       7    3534    3459    3462    3537       7
    3531    3459    3462    3540       7    3531    3459    3462    3537       7
    3528    3450    3606    3681       2    3528    3450    3606    3603       2
    3525    3447    3450    3528       3    3525    3447    3450    3606       4
    3525    3447   -3450    3606       3    3525    3447   -3450    3606       5
    3522    3444    3447    3525      10    3519    3444    3447    3525      10
    3513    3438    3441    3516       3    3513    3438    3444    3522      10
    3513    3438    3444    3519      10    3507    3435    3438    3513       7
    3507    3456    3459    3531      11    3507    3456    3459    3534      11
    3504    3501    3495    3576       7    3504    3501    3474    3555      12
    3504    3501   -3474    3555      13    3501    3495    3498    3579      12
    3501    3495   -3498    3579      14    3501    3474    3477    3558       7
    3498    3495    3501    3582      12    3498    3495   -3501    3582      13
    3495    3501    3504    3585      12    3495    3501   -3504    3585      14
    3495    3501    3474    3555       7    3495    3492    3483    3564      17
    3492    3495    3498    3579       6    3492    3495    3501    3582      12
    3492    3495   -3501    3582      13    3492    3483    3477    3558      12
    3492    3483   -3477    3558      13    3492    3483    3486    3567      12
    3492    3483   -3486    3567      13    3492    3483    3486    3570      12
    3492    3483   -3486    3570      13    3489    3486    3483    3564      12
    3489    3486   -3483    3564      13    3486    3483    3477    3558       7
    3483    3492    3495    3576      17    3483    3477    3474    3555       7
    3483    3477    3480    3561      12    3483    3477   -3480    3561      14
    3483    3486    3489    3573      12    3483    3486   -3489    3573      14
    3480    3477    3474    3555      12    3480    3477   -3474    3555      13
    3480    3477    3483    3564      12    3480    3477   -3483    3564      13
    3477    3474    3501    3582       7    3477    3483    3486    3567       7
    3477    3483    3486    3570       7    3474    3501    3504    3585      12
    3474    3501   -3504    3585      14    3474    3501    3495    3576       7
    3474    3471    3468    3549      17    3474    3471    3468    3552      17
    3474    3477    3483    3564       7    3474    3477    3480    3561      12
    3474    3477   -3480    3561      14    3471    3468    3465    3546      12
    3471    3468   -3465    3546      13    3471    3468    3465    3543      12
    3471    3468   -3465    3543      13    3471    3474    3501    3582      12
    3471    3474   -3501    3582      13    3471    3474    3477    3558      12
    3471    3474   -3477    3558      13    3468    3471    3474    3555      17
    3468    3465    3462    3540      23    3468    3465    3462    3537      23
    3465    3462    3459    3531       7    3465    3462    3459    3534       7
    3462    3465    3468    3549       7    3462    3465    3468    3552       7
    3459    3462    3465    3546      23    3459    3462    3465    3543      23
    3456    3459    3462    3540       7    3456    3459    3462    3537       7
    3453    3435    3438    3513      10    3453    3435    3507    3510      30
    3453    3435   -3507    3510       3    3453    3435   -3507    3510      31
    3453    3435    3507    3456      11    3450    3447    3444    3522       7
    3450    3447    3444    3519       7    3450    3606    3603    3678       4
    3450    3606   -3603    3678       3    3450    3606   -3603    3678       5
    3447    3444    3438    3513      14    3447    3450    3606    3681       2
    3447    3429    3435    3453      14    3444    3438    3441    3516       3
    3444    3438    3435    3453      14    3444    3447    3450    3528       3
    3441    3438    3444    3522       7    3441    3438    3444    3519       7
    3441    3438    3435    3453       7    3438    3444    3447    3525      14
    3435    3438    3441    3516       3    3435    3438    3444    3522      14
    3435    3438    3444    3519      14    3435    3429    3447    3525      14
    3432    3429    3447    3525      10    3432    3429    3447    3444      14
    3432    3429    3447    3450       7    3432    3429    3435    3438      14
    3432    3429    3435    3507       7    3432    3429    3435    3453      10
    3432    3429    3426    3456      11    3429    3447    3444    3522      14
    3429    3447    3444    3519      14    3429    3447    3450    3528       3
    3429    3435    3438    3513      14    3426    3429    3447    3525       7
    3426    3429    3435    3453       7    3426    3456    3459    3531      11
    3426    3456    3459    3534      11    3423    3426    3429    3432      30
    3423    3426   -3429    3432       3    3423    3426   -3429    3432      31
    3747    3666    3669    3750       6    3741    3660    3663    3744       6
    3741    3660    3666    3747       7    3735    3651    3654    3738       8
    3732    3651    3654    3738       8    3729    3648    3651    3732       7
    3729    3648    3651    3735       7    3723    3642    3648    3729       7
    3723    3642    3645    3726       6    3720    3639    3666    3747       7
    3720    3639    3642    3723       7    3711    3630    3633    3714       7
    3711    3630    3633    3717       7    3708    3630    3633    3714       7
    3708    3630    3633    3717       7    3705    3627    3630    3711       9
    3705    3627    3630    3708       9    3702    3627    3630    3711       9
    3702    3627    3630    3708       9    3699    3624    3627    3705       7
    3699    3624    3627    3702       7    3696    3624    3627    3705       7
    3696    3624    3627    3702       7    3693    3615    3771    3846       2
    3693    3615    3771    3768       2    3690    3612    3615    3693       3
    3690    3612    3615    3771       4    3690    3612   -3615    3771       3
    3690    3612   -3615    3771       5    3687    3609    3612    3690      10
    3684    3609    3612    3690      10    3678    3603    3606    3681       3
    3678    3603    3609    3687      10    3678    3603    3609    3684      10
    3672    3600    3603    3678       7    3672    3621    3624    3696      11
    3672    3621    3624    3699      11    3669    3666    3660    3741       7
    3669    3666    3639    3720      12    3669    3666   -3639    3720      13
    3666    3660    3663    3744      12    3666    3660   -3663    3744      14
    3666    3639    3642    3723       7    3663    3660    3666    3747      12
    3663    3660   -3666    3747      13    3660    3666    3669    3750      12
    3660    3666   -3669    3750      14    3660    3666    3639    3720       7
    3660    3657    3648    3729      17    3657    3660    3663    3744       6
    3657    3660    3666    3747      12    3657    3660   -3666    3747      13
    3657    3648    3642    3723      12    3657    3648   -3642    3723      13
    3657    3648    3651    3732      12    3657    3648   -3651    3732      13
    3657    3648    3651    3735      12    3657    3648   -3651    3735      13
    3654    3651    3648    3729      12    3654    3651   -3648    3729      13
    3651    3648    3642    3723       7    3648    3657    3660    3741      17
    3648    3642    3639    3720       7    3648    3642    3645    3726      12
    3648    3642   -3645    3726      14    3648    3651    3654    3738      12
    3648    3651   -3654    3738      14    3645    3642    3639    3720      12
    3645    3642   -3639    3720      13    3645    3642    3648    3729      12
    3645    3642   -3648    3729      13    3642    3639    3666    3747       7
    3642    3648    3651    3732       7    3642    3648    3651    3735       7
    3639    3666    3669    3750      12    3639    3666   -3669    3750      14
    3639    3666    3660    3741       7    3639    3636    3633    3714      17
    3639    3636    3633    3717      17    3639    3642    3648    3729       7
    3639    3642    3645    3726      12    3639    3642   -3645    3726      14
    3636    3633    3630    3711      12    3636    3633   -3630    3711      13
    3636    3633    3630    3708      12    3636    3633   -3630    3708      13
    3636    3639    3666    3747      12    3636    3639   -3666    3747      13
    3636    3639    3642    3723      12    3636    3639   -3642    3723      13
    3633    3636    3639    3720      17    3633    3630    3627    3705      23
    3633    3630    3627    3702      23    3630    3627    3624    3696       7
    3630    3627    3624    3699       7    3627    3630    3633    3714       7
    3627    3630    3633    3717       7    3624    3627    3630    3711      23
    3624    3627    3630    3708      23    3621    3624    3627    3705       7
    3621    3624    3627    3702       7    3618    3600    3603    3678      10
    3618    3600    3672    3675      30    3618    3600   -3672    3675       3
    3618    3600   -3672    3675      31    3618    3600    3672    3621      11
    3615    3612    3609    3687       7    3615    3612    3609    3684       7
    3615    3771    3768    3843       4    3615    3771   -3768    3843       3
    3615    3771   -3768    3843       5    3612    3609    3603    3678      14
    3612    3615    3771    3846       2    3612    3594    3600    3618      14
    3609    3603    3606    3681       3    3609    3603    3600    3618      14
    3609    3612    3615    3693       3    3606    3603    3609    3687       7
    3606    3603    3609    3684       7    3606    3603    3600    3618       7
    3603    3609    3612    3690      14    3600    3603    3606    3681       3
    3600    3603    3609    3687      14    3600    3603    3609    3684      14
    3600    3594    3612    3690      14    3597    3594    3612    3690      10
    3597    3594    3612    3609      14    3597    3594    3612    3615       7
    3597    3594    3600    3603      14    3597    3594    3600    3672       7
    3597    3594    3600    3618      10    3597    3594    3591    3621      11
    3594    3612    3609    3687      14    3594    3612    3609    3684      14
    3594    3612    3615    3693       3    3594    3600    3603    3678      14
    3591    3594    3612    3690       7    3591    3594    3600    3618       7
    3591    3621    3624    3696      11    3591    3621    3624    3699      11
    3588    3591    3594    3597      30    3588    3591   -3594    3597       3
    3588    3591   -3594    3597      31    3912    3831    3834    3915       6
    3906    3825    3828    3909       6    3906    3825    3831    3912       7
    3900    3816    3819    3903       8    3897    3816    3819    3903       8
    3894    3813    3816    3897       7    3894    3813    3816    3900       7
    3888    3807    3813    3894       7    3888    3807    3810    3891       6
    3885    3804    3831    3912       7    3885    3804    3807    3888       7
    3876    3795    3798    3879       7    3876    3795    3798    3882       7
    3873    3795    3798    3879       7    3873    3795    3798    3882       7
    3870    3792    3795    3876       9    3870    3792    3795    3873       9
    3867    3792    3795    3876       9    3867    3792    3795    3873       9
    3864    3789    3792    3870       7    3864    3789    3792    3867       7
    3861    3789    3792    3870       7    3861    3789    3792    3867       7
    3858    3780    3936    4011       2    3858    3780    3936    3933       2
    3855    3777    3780    3858       3    3855    3777    3780    3936       4
    3855    3777   -3780    3936       3    3855    3777   -3780    3936       5
    3852    3774    3777    3855      10    3849    3774    3777    3855      10
    3843    3768    3771    3846       3    3843    3768    3774    3852      10
    3843    3768    3774    3849      10    3837    3765    3768    3843       7
    3837    3786    3789    3861      11    3837    3786    3789    3864      11
    3834    3831    3825    3906       7    3834    3831    3804    3885      12
    3834    3831   -3804    3885      13    3831    3825    3828    3909      12
    3831    3825   -3828    3909      14    3831    3804    3807    3888       7
    3828    3825    3831    3912      12    3828    3825   -3831    3912      13
    3825    3831    3834    3915      12    3825    3831   -3834    3915      14
    3825    3831    3804    3885       7    3825    3822    3813    3894      17
    3822    3825    3828    3909       6    3822    3825    3831    3912      12
    3822    3825   -3831    3912      13    3822    3813    3807    3888      12
    3822    3813   -3807    3888      13    3822    3813    3816    3897      12
    3822    3813   -3816    3897      13    3822    3813    3816    3900      12
    3822    3813   -3816    3900      13    3819    3816    3813    3894      12
    3819    3816   -3813    3894      13    3816    3813    3807    3888       7
    3813    3822    3825    3906      17    3813    3807    3804    3885       7
    3813    3807    3810    3891      12    3813    3807   -3810    3891      14
    3813    3816    3819    3903      12    3813    3816   -3819    3903      14
    3810    3807    3804    3885      12    3810    3807   -3804    3885      13
    3810    3807    3813    3894      12    3810    3807   -3813    3894      13
    3807    3804    3831    3912       7    3807    3813    3816    3897       7
    3807    3813    3816    3900       7    3804    3831    3834    3915      12
    3804    3831   -3834    3915      14    3804    3831    3825    3906       7
    3804    3801    3798    3879      17    3804    3801    3798    3882      17
    3804    3807    3813    3894       7    3804    3807    3810    3891      12
    3804    3807   -3810    3891      14    3801    3798    3795    3876      12
    3801    3798   -3795    3876      13    3801    3798    3795    3873      12
    3801    3798   -3795    3873      13    3801    3804    3831    3912      12
    3801    3804   -3831    3912      13    3801    3804    3807    3888      12
    3801    3804   -3807    3888      13    3798    3801    3804    3885      17
    3798    3795    3792    3870      23    3798    3795    3792    3867      23
    3795    3792    3789    3861       7    3795    3792    3789    3864       7
    3792    3795    3798    3879       7    3792    3795    3798    3882       7
    3789    3792    3795    3876      23    3789    3792    3795    3873      23
    3786    3789    3792    3870       7    3786    3789    3792    3867       7
    3783    3765    3768    3843      10    3783    3765    3837    3840      30
    3783    3765   -3837    3840       3    3783    3765   -3837    3840      31
    3783    3765    3837    3786      11    3780    3777    3774    3852       7
    3780    3777    3774    3849       7    3780    3936    3933    4008       4
    3780    3936   -3933    4008       3    3780    3936   -3933    4008       5
    3777    3774    3768    3843      14    3777    3780    3936    4011       2
    3777    3759    3765    3783      14    3774    3768    3771    3846       3
    3774    3768    3765    3783      14    3774    3777    3780    3858       3
    3771    3768    3774    3852       7    3771    3768    3774    3849       7
    3771    3768    3765    3783       7    3768    3774    3777    3855      14
    3765    3768    3771    3846       3    3765    3768    3774    3852      14
    3765    3768    3774    3849      14    3765    3759    3777    3855      14
    3762    3759    3777    3855      10    3762    3759    3777    3774      14
    3762    3759    3777    3780       7    3762    3759    3765    3768      14
    3762    3759    3765    3837       7    3762    3759    3765    3783      10
    3762    3759    3756    3786      11    3759    3777    3774    3852      14
    3759    3777    3774    3849      14    3759    3777    3780    3858       3
    3759    3765    3768    3843      14    3756    3759    3777    3855       7
    3756    3759    3765    3783       7    3756    3786    3789    3861      11
    3756    3786    3789    3864      11    3753    3756    3759    3762      30
    3753    3756   -3759    3762       3    3753    3756   -3759    3762      31
    4077    3996    3999    4080       6    4071    3990    3993    4074       6
    4071    3990    3996    4077       7    4065    3981    3984    4068       8
    4062    3981    3984    4068       8    4059    3978    3981    4062       7
    4059    3978    3981    4065       7    4053    3972    3978    4059       7
    4053    3972    3975    4056       6    4050    3969    3996    4077       7
    4050    3969    3972    4053       7    4041    3960    3963    4044       7
    4041    3960    3963    4047       7    4038    3960    3963    4044       7
    4038    3960    3963    4047       7    4035    3957    3960    4041       9
    4035    3957    3960    4038       9    4032    3957    3960    4041       9
    4032    3957    3960    4038       9    4029    3954    3957    4035       7
    4029    3954    3957    4032       7    4026    3954    3957    4035       7
    4026    3954    3957    4032       7    4023    3945    4101    4176       2
    4023    3945    4101    4098       2    4020    3942    3945    4023       3
    4020    3942    3945    4101       4    4020    3942   -3945    4101       3
    4020    3942   -3945    4101       5    4017    3939    3942    4020      10
    4014    3939    3942    4020      10    4008    3933    3936    4011       3
    4008    3933    3939    4017      10    4008    3933    3939    4014      10
    4002    3930    3933    4008       7    4002    3951    3954    4026      11
    4002    3951    3954    4029      11    3999    3996    3990    4071       7
    3999    3996    3969    4050      12    3999    3996   -3969    4050      13
    3996    3990    3993    4074      12    3996    3990   -3993    4074      14
    3996    3969    3972    4053       7    3993    3990    3996    4077      12
    3993    3990   -3996    4077      13    3990    3996    3999    4080      12
    3990    3996   -3999    4080      14    3990    3996    3969    4050       7
    3990    3987    3978    4059      17    3987    3990    3993    4074       6
    3987    3990    3996    4077      12    3987    3990   -3996    4077      13
    3987    3978    3972    4053      12    3987    3978   -3972    4053      13
    3987    3978    3981    4062      12    3987    3978   -3981    4062      13
    3987    3978    3981    4065      12    3987    3978   -3981    4065      13
    3984    3981    3978    4059      12    3984    3981   -3978    4059      13
    3981    3978    3972    4053       7    3978    3987    3990    4071      17
    3978    3972    3969    4050       7    3978    3972    3975    4056      12
    3978    3972   -3975    4056      14    3978    3981    3984    4068      12
    3978    3981   -3984    4068      14    3975    3972    3969    4050      12
    3975    3972   -3969    4050      13    3975    3972    3978    4059      12
    3975    3972   -3978    4059      13    3972    3969    3996    4077       7
    3972    3978    3981    4062       7    3972    3978    3981    4065       7
    3969    3996    3999    4080      12    3969    3996   -3999    4080      14
    3969    3996    3990    4071       7    3969    3966    3963    4044      17
    3969    3966    3963    4047      17    3969    3972    3978    4059       7
    3969    3972    3975    4056      12    3969    3972   -3975    4056      14
    3966    3963    3960    4041      12    3966    3963   -3960    4041      13
    3966    3963    3960    4038      12    3966    3963   -3960    4038      13
    3966    3969    3996    4077      12    3966    3969   -3996    4077      13
    3966    3969    3972    4053      12    3966    3969   -3972    4053      13
    3963    3966    3969    4050      17    3963    3960    3957    4035      23
    3963    3960    3957    4032      23    3960    3957    3954    4026       7
    3960    3957    3954    4029       7    3957    3960    3963    4044       7
    3957    3960    3963    4047       7    3954    3957    3960    4041      23
    3954    3957    3960    4038      23    3951    3954    3957    4035       7
    3951    3954    3957    4032       7    3948    3930    3933    4008      10
    3948    3930    4002    4005      30    3948    3930   -4002    4005       3
    3948    3930   -4002    4005      31    3948    3930    4002    3951      11
    3945    3942    3939    4017       7    3945    3942    3939    4014       7
    3945    4101    4098    4173       4    3945    4101   -4098    4173       3
    3945    4101   -4098    4173       5    3942    3939    3933    4008      14
    3942    3945    4101    4176       2    3942    3924    3930    3948      14
    3939    3933    3936    4011       3    3939    3933    3930    3948      14
    3939    3942    3945    4023       3    3936    3933    3939    4017       7
    3936    3933    3939    4014       7    3936    3933    3930    3948       7
    3933    3939    3942    4020      14    3930    3933    3936    4011       3
    3930    3933    3939    4017      14    3930    3933    3939    4014      14
    3930    3924    3942    4020      14    3927    3924    3942    4020      10
    3927    3924    3942    3939      14    3927    3924    3942    3945       7
    3927    3924    3930    3933      14    3927    3924    3930    4002       7
    3927    3924    3930    3948      10    3927    3924    3921    3951      11
    3924    3942    3939    4017      14    3924    3942    3939    4014      14
    3924    3942    3945    4023       3    3924    3930    3933    4008      14
    3921    3924    3942    4020       7    3921    3924    3930    3948       7
    3921    3951    3954    4026      11    3921    3951    3954    4029      11
    3918    3921    3924    3927      30    3918    3921   -3924    3927       3
    3918    3921   -3924    3927      31    4242    4161    4164    4245       6
    4236    4155    4158    4239       6    4236    4155    4161    4242       7
    4230    4146    4149    4233       8    4227    4146    4149    4233       8
    4224    4143    4146    4227       7    4224    4143    4146    4230       7
    4218    4137    4143    4224       7    4218    4137    4140    4221       6
    4215    4134    4161    4242       7    4215    4134    4137    4218       7
    4206    4125    4128    4209       7    4206    4125    4128    4212       7
    4203    4125    4128    4209       7    4203    4125    4128    4212       7
    4200    4122    4125    4206       9    4200    4122    4125    4203       9
    4197    4122    4125    4206       9    4197    4122    4125    4203       9
    4194    4119    4122    4200       7    4194    4119    4122    4197       7
    4191    4119    4122    4200       7    4191    4119    4122    4197       7
    4188    4110    4266    4341       2    4188    4110    4266    4263       2
    4185    4107    4110    4188       3    4185    4107    4110    4266       4
    4185    4107   -4110    4266       3    4185    4107   -4110    4266       5
    4182    4104    4107    4185      10    4179    4104    4107    4185      10
    4173    4098    4101    4176       3    4173    4098    4104    4182      10
    4173    4098    4104    4179      10    4167    4095    4098    4173       7
    4167    4116    4119    4191      11    4167    4116    4119    4194      11
    4164    4161    4155    4236       7    4164    4161    4134    4215      12
    4164    4161   -4134    4215      13    4161    4155    4158    4239      12
    4161    4155   -4158    4239      14    4161    4134    4137    4218       7
    4158    4155    4161    4242      12    4158    4155   -4161    4242      13
    4155    4161    4164    4245      12    4155    4161   -4164    4245      14
    4155    4161    4134    4215       7    4155    4152    4143    4224      17
    4152    4155    4158    4239       6    4152    4155    4161    4242      12
    4152    4155   -4161    4242      13    4152    4143    4137    4218      12
    4152    4143   -4137    4218      13    4152    4143    4146    4227      12
    4152    4143   -4146    4227      13    4152    4143    4146    4230      12
    4152    4143   -4146    4230      13    4149    4146    4143    4224      12
    4149    4146   -4143    4224      13    4146    4143    4137    4218       7
    4143    4152    4155    4236      17    4143    4137    4134    4215       7
    4143    4137    4140    4221      12    4143    4137   -4140    4221      14
    4143    4146    4149    4233      12    4143    4146   -4149    4233      14
    4140    4137    4134    4215      12    4140    4137   -4134    4215      13
    4140    4137    4143    4224      12    4140    4137   -4143    4224      13
    4137    4134    4161    4242       7    4137    4143    4146    4227       7
    4137    4143    4146    4230       7    4134    4161    4164    4245      12
    4134    4161   -4164    4245      14    4134    4161    4155    4236       7
    4134    4131    4128    4209      17    4134    4131    4128    4212      17
    4134    4137    4143    4224       7    4134    4137    4140    4221      12
    4134    4137   -4140    4221      14    4131    4128    4125    4206      12
    4131    4128   -4125    4206      13    4131    4128    4125    4203      12
    4131    4128   -4125    4203      13    4131    4134    4161    4242      12
    4131    4134   -4161    4242      13    4131    4134    4137    4218      12
    4131    4134   -4137    4218      13    4128    4131    4134    4215      17
    4128    4125    4122    4200      23    4128    4125    4122    4197      23
    4125    4122    4119    4191       7    4125    4122    4119    4194       7
    4122    4125    4128    4209       7    4122    4125    4128    4212       7
    4119    4122    4125    4206      23    4119    4122    4125    4203      23
    4116    4119    4122    4200       7    4116    4119    4122    4197       7
    4113    4095    4098    4173      10    4113    4095    4167    4170      30
    4113    4095   -4167    4170       3    4113    4095   -4167    4170      31
    4113    4095    4167    4116      11    4110    4107    4104    4182       7
    4110    4107    4104    4179       7    4110    4266    4263    4338       4
    4110    4266   -4263    4338       3    4110    4266   -4263    4338       5
    4107    4104    4098    4173      14    4107    4110    4266    4341       2
    4107    4089    4095    4113      14    4104    4098    4101    4176       3
    4104    4098    4095    4113      14    4104    4107    4110    4188       3
    4101    4098    4104    4182       7    4101    4098    4104    4179       7
    4101    4098    4095    4113       7    4098    4104    4107    4185      14
    4095    4098    4101    4176       3    4095    4098    4104    4182      14
    4095    4098    4104    4179      14    4095    4089    4107    4185      14
    4092    4089    4107    4185      10    4092    4089    4107    4104      14
    4092    4089    4107    4110       7    4092    4089    4095    4098      14
    4092    4089    4095    4167       7    4092    4089    4095    4113      10
    4092    4089    4086    4116      11    4089    4107    4104    4182      14
    4089    4107    4104    4179      14    4089    4107    4110    4188       3
    4089    4095    4098    4173      14    4086    4089    4107    4185       7
    4086    4089    4095    4113       7    4086    4116    4119    4191      11
    4086    4116    4119    4194      11    4083    4086    4089    4092      30
    4083    4086   -4089    4092       3    4083    4086   -4089    4092      31
    4407    4326    4329    4410       6    4401    4320    4323    4404       6
    4401    4320    4326    4407       7    4395    4311    4314    4398       8
    4392    4311    4314    4398       8    4389    4308    4311    4392       7
    4389    4308    4311    4395       7    4383    4302    4308    4389       7
    4383    4302    4305    4386       6    4380    4299    4326    4407       7
    4380    4299    4302    4383       7    4371    4290    4293    4374       7
    4371    4290    4293    4377       7    4368    4290    4293    4374       7
    4368    4290    4293    4377       7    4365    4287    4290    4371       9
    4365    4287    4290    4368       9    4362    4287    4290    4371       9
    4362    4287    4290    4368       9    4359    4284    4287    4365       7
    4359    4284    4287    4362       7    4356    4284    4287    4365       7
    4356    4284    4287    4362       7    4353    4275    4431    4506       2
    4353    4275    4431    4428       2    4350    4272    4275    4353       3
    4350    4272    4275    4431       4    4350    4272   -4275    4431       3
    4350    4272   -4275    4431       5    4347    4269    4272    4350      10
    4344    4269    4272    4350      10    4338    4263    4266    4341       3
    4338    4263    4269    4347      10    4338    4263    4269    4344      10
    4332    4260    4263    4338       7    4332    4281    4284    4356      11
    4332    4281    4284    4359      11    4329    4326    4320    4401       7
    4329    4326    4299    4380      12    4329    4326   -4299    4380      13
    4326    4320    4323    4404      12    4326    4320   -4323    4404      14
    4326    4299    4302    4383       7    4323    4320    4326    4407      12
    4323    4320   -4326    4407      13    4320    4326    4329    4410      12
    4320    4326   -4329    4410      14    4320    4326    4299    4380       7
    4320    4317    4308    4389      17    4317    4320    4323    4404       6
    4317    4320    4326    4407      12    4317    4320   -4326    4407      13
    4317    4308    4302    4383      12    4317    4308   -4302    4383      13
    4317    4308    4311    4392      12    4317    4308   -4311    4392      13
    4317    4308    4311    4395      12    4317    4308   -4311    4395      13
    4314    4311    4308    4389      12    4314    4311   -4308    4389      13
    4311    4308    4302    4383       7    4308    4317    4320    4401      17
    4308    4302    4299    4380       7    4308    4302    4305    4386      12
    4308    4302   -4305    4386      14    4308    4311    4314    4398      12
    4308    4311   -4314    4398      14    4305    4302    4299    4380      12
    4305    4302   -4299    4380      13    4305    4302    4308    4389      12
    4305    4302   -4308    4389      13    4302    4299    4326    4407       7
    4302    4308    4311    4392       7    4302    4308    4311    4395       7
    4299    4326    4329    4410      12    4299    4326   -4329    4410      14
    4299    4326    4320    4401       7    4299    4296    4293    4374      17
    4299    4296    4293    4377      17    4299    4302    4308    4389       7
    4299    4302    4305    4386      12    4299    4302   -4305    4386      14
    4296    4293    4290    4371      12    4296    4293   -4290    4371      13
    4296    4293    4290    4368      12    4296    4293   -4290    4368      13
    4296    4299    4326    4407      12    4296    4299   -4326    4407      13
    4296    4299    4302    4383      12    4296    4299   -4302    4383      13
    4293    4296    4299    4380      17    4293    4290    4287    4365      23
    4293    4290    4287    4362      23    4290    4287    4284    4356       7
    4290    4287    4284    4359       7    4287    4290    4293    4374       7
    4287    4290    4293    4377       7    4284    4287    4290    4371      23
    4284    4287    4290    4368      23    4281    4284    4287    4365       7
    4281    4284    4287    4362       7    4278    4260    4263    4338      10
    4278    4260    4332    4335      30    4278    4260   -4332    4335       3
    4278    4260   -4332    4335      31    4278    4260    4332    4281      11
    4275    4272    4269    4347       7    4275    4272    4269    4344       7
    4275    4431    4428    4503       4    4275    4431   -4428    4503       3
    4275    4431   -4428    4503       5    4272    4269    4263    4338      14
    4272    4275    4431    4506       2    4272    4254    4260    4278      14
    4269    4263    4266    4341       3    4269    4263    4260    4278      14
    4269    4272    4275    4353       3    4266    4263    4269    4347       7
    4266    4263    4269    4344       7    4266    4263    4260    4278       7
    4263    4269    4272    4350      14    4260    4263    4266    4341       3
    4260    4263    4269    4347      14    4260    4263    4269    4344      14
    4260    4254    4272    4350      14    4257    4254    4272    4350      10
    4257    4254    4272    4269      14    4257    4254    4272    4275       7
    4257    4254    4260    4263      14    4257    4254    4260    4332       7
    4257    4254    4260    4278      10    4257    4254    4251    4281      11
    4254    4272    4269    4347      14    4254    4272    4269    4344      14
    4254    4272    4275    4353       3    4254    4260    4263    4338      14
    4251    4254    4272    4350       7    4251    4254    4260    4278       7
    4251    4281    4284    4356      11    4251    4281    4284    4359      11
    4248    4251    4254    4257      30    4248    4251   -4254    4257       3
    4248    4251   -4254    4257      31    4572    4491    4494    4575       6
    4566    4485    4488    4569       6    4566    4485    4491    4572       7
    4560    4476    4479    4563       8    4557    4476    4479    4563       8
    4554    4473    4476    4557       7    4554    4473    4476    4560       7
    4548    4467    4473    4554       7    4548    4467    4470    4551       6
    4545    4464    4491    4572       7    4545    4464    4467    4548       7
    4536    4455    4458    4539       7    4536    4455    4458    4542       7
    4533    4455    4458    4539       7    4533    4455    4458    4542       7
    4530    4452    4455    4536       9    4530    4452    4455    4533       9
    4527    4452    4455    4536       9    4527    4452    4455    4533       9
    4524    4449    4452    4530       7    4524    4449    4452    4527       7
    4521    4449    4452    4530       7    4521    4449    4452    4527       7
    4518    4440    4596    4671       2    4518    4440    4596    4593       2
    4515    4437    4440    4518       3    4515    4437    4440    4596       4
    4515    4437   -4440    4596       3    4515    4437   -4440    4596       5
    4512    4434    4437    4515      10    4509    4434    4437    4515      10
    4503    4428    4431    4506       3    4503    4428    4434    4512      10
    4503    4428    4434    4509      10    4497    4425    4428    4503       7
    4497    4446    4449    4521      11    4497    4446    4449    4524      11
    4494    4491    4485    4566       7    4494    4491    4464    4545      12
    4494    4491   -4464    4545      13    4491    4485    4488    4569      12
    4491    4485   -4488    4569      14    4491    4464    4467    4548       7
    4488    4485    4491    4572      12    4488    4485   -4491    4572      13
    4485    4491    4494    4575      12    4485    4491   -4494    4575      14
    4485    4491    4464    4545       7    4485    4482    4473    4554      17
    4482    4485    4488    4569       6    4482    4485    4491    4572      12
    4482    4485   -4491    4572      13    4482    4473    4467    4548      12
    4482    4473   -4467    4548      13    4482    4473    4476    4557      12
    4482    4473   -4476    4557      13    4482    4473    4476    4560      12
    4482    4473   -4476    4560      13    4479    4476    4473    4554      12
    4479    4476   -4473    4554      13    4476    4473    4467    4548       7
    4473    4482    4485    4566      17    4473    4467    4464    4545       7
    4473    4467    4470    4551      12    4473    4467   -4470    4551      14
    4473    4476    4479    4563      12    4473    4476   -4479    4563      14
    4470    4467    4464    4545      12    4470    4467   -4464    4545      13
    4470    4467    4473    4554      12    4470    4467   -4473    4554      13
    4467    4464    4491    4572       7    4467    4473    4476    4557       7
    4467    4473    4476    4560       7    4464    4491    4494    4575      12
    4464    4491   -4494    4575      14    4464    4491    4485    4566       7
    4464    4461    4458    4539      17    4464    4461    4458    4542      17
    4464    4467    4473    4554       7    4464    4467    4470    4551      12
    4464    4467   -4470    4551      14    4461    4458    4455    4536      12
    4461    4458   -4455    4536      13    4461    4458    4455    4533      12
    4461    4458   -4455    4533      13    4461    4464    4491    4572      12
    4461    4464   -4491    4572      13    4461    4464    4467    4548      12
    4461    4464   -4467    4548      13    4458    4461    4464    4545      17
    4458    4455    4452    4530      23    4458    4455    4452    4527      23
    4455    4452    4449    4521       7    4455    4452    4449    4524       7
    4452    4455    4458    4539       7    4452    4455    4458    4542       7
    4449    4452    4455    4536      23    4449    4452    4455    4533      23
    4446    4449    4452    4530       7    4446    4449    4452    4527       7
    4443    4425    4428    4503      10    4443    4425    4497    4500      30
    4443    4425   -4497    4500       3    4443    4425   -4497    4500      31
    4443    4425    4497    4446      11    4440    4437    4434    4512       7
    4440    4437    4434    4509       7    4440    4596    4593    4668       4
    4440    4596   -4593    4668       3    4440    4596   -4593    4668       5
    4437    4434    4428    4503      14    4437    4440    4596    4671       2
    4437    4419    4425    4443      14    4434    4428    4431    4506       3
    4434    4428    4425    4443      14    4434    4437    4440    4518       3
    4431    4428    4434    4512       7    4431    4428    4434    4509       7
    4431    4428    4425    4443       7    4428    4434    4437    4515      14
    4425    4428    4431    4506       3    4425    4428    4434    4512      14
    4425    4428    4434    4509      14    4425    4419    4437    4515      14
    4422    4419    4437    4515      10    4422    4419    4437    4434      14
    4422    4419    4437    4440       7    4422    4419    4425    4428      14
    4422    4419    4425    4497       7    4422    4419    4425    4443      10
    4422    4419    4416    4446      11    4419    4437    4434    4512      14
    4419    4437    4434    4509      14    4419    4437    4440    4518       3
    4419    4425    4428    4503      14    4416    4419    4437    4515       7
    4416    4419    4425    4443       7    4416    4446    4449    4521      11
    4416    4446    4449    4524      11    4413    4416    4419    4422      30
    4413    4416   -4419    4422       3    4413    4416   -4419    4422      31
    4737    4656    4659    4740       6    4731    4650    4653    4734       6
    4731    4650    4656    4737       7    4725    4641    4644    4728       8
    4722    4641    4644    4728       8    4719    4638    4641    4722       7
    4719    4638    4641    4725       7    4713    4632    4638    4719       7
    4713    4632    4635    4716       6    4710    4629    4656    4737       7
    4710    4629    4632    4713       7    4701    4620    4623    4704       7
    4701    4620    4623    4707       7    4698    4620    4623    4704       7
    4698    4620    4623    4707       7    4695    4617    4620    4701       9
    4695    4617    4620    4698       9    4692    4617    4620    4701       9
    4692    4617    4620    4698       9    4689    4614    4617    4695       7
    4689    4614    4617    4692       7    4686    4614    4617    4695       7
    4686    4614    4617    4692       7    4683    4605    4761    4836       2
    4683    4605    4761    4758       2    4680    4602    4605    4683       3
    4680    4602    4605    4761       4    4680    4602   -4605    4761       3
    4680    4602   -4605    4761       5    4677    4599    4602    4680      10
    4674    4599    4602    4680      10    4668    4593    4596    4671       3
    4668    4593    4599    4677      10    4668    4593    4599    4674      10
    4662    4590    4593    4668       7    4662    4611    4614    4686      11
    4662    4611    4614    4689      11    4659    4656    4650    4731       7
    4659    4656    4629    4710      12    4659    4656   -4629    4710      13
    4656    4650    4653    4734      12    4656    4650   -4653    4734      14
    4656    4629    4632    4713       7    4653    4650    4656    4737      12
    4653    4650   -4656    4737      13    4650    4656    4659    4740      12
    4650    4656   -4659    4740      14    4650    4656    4629    4710       7
    4650    4647    4638    4719      17    4647    4650    4653    4734       6
    4647    4650    4656    4737      12    4647    4650   -4656    4737      13
    4647    4638    4632    4713      12    4647    4638   -4632    4713      13
    4647    4638    4641    4722      12    4647    4638   -4641    4722      13
    4647    4638    4641    4725      12    4647    4638   -4641    4725      13
    4644    4641    4638    4719      12    4644    4641   -4638    4719      13
    4641    4638    4632    4713       7    4638    4647    4650    4731      17
    4638    4632    4629    4710       7    4638    4632    4635    4716      12
    4638    4632   -4635    4716      14    4638    4641    4644    4728      12
    4638    4641   -4644    4728      14    4635    4632    4629    4710      12
    4635    4632   -4629    4710      13    4635    4632    4638    4719      12
    4635    4632   -4638    4719      13    4632    4629    4656    4737       7
    4632    4638    4641    4722       7    4632    4638    4641    4725       7
    4629    4656    4659    4740      12    4629    4656   -4659    4740      14
    4629    4656    4650    4731       7    4629    4626    4623    4704      17
    4629    4626    4623    4707      17    4629    4632    4638    4719       7
    4629    4632    4635    4716      12    4629    4632   -4635    4716      14
    4626    4623    4620    4701      12    4626    4623   -4620    4701      13
    4626    4623    4620    4698      12    4626    4623   -4620    4698      13
    4626    4629    4656    4737      12    4626    4629   -4656    4737      13
    4626    4629    4632    4713      12    4626    4629   -4632    4713      13
    4623    4626    4629    4710      17    4623    4620    4617    4695      23
    4623    4620    4617    4692      23    4620    4617    4614    4686       7
    4620    4617    4614    4689       7    4617    4620    4623    4704       7
    4617    4620    4623    4707       7    4614    4617    4620    4701      23
    4614    4617    4620    4698      23    4611    4614    4617    4695       7
    4611    4614    4617    4692       7    4608    4590    4593    4668      10
    4608    4590    4662    4665      30    4608    4590   -4662    4665       3
    4608    4590   -4662    4665      31    4608    4590    4662    4611      11
    4605    4602    4599    4677       7    4605    4602    4599    4674       7
    4605    4761    4758    4833       4    4605    4761   -4758    4833       3
    4605    4761   -4758    4833       5    4602    4599    4593    4668      14
    4602    4605    4761    4836       2    4602    4584    4590    4608      14
    4599    4593    4596    4671       3    4599    4593    4590    4608      14
    4599    4602    4605    4683       3    4596    4593    4599    4677       7
    4596    4593    4599    4674       7    4596    4593    4590    4608       7
    4593    4599    4602    4680      14    4590    4593    4596    4671       3
    4590    4593    4599    4677      14    4590    4593    4599    4674      14
    4590    4584    4602    4680      14    4587    4584    4602    4680      10
    4587    4584    4602    4599      14    4587    4584    4602    4605       7
    4587    4584    4590    4593      14    4587    4584    4590    4662       7
    4587    4584    4590    4608      10    4587    4584    4581    4611      11
    4584    4602    4599    4677      14    4584    4602    4599    4674      14
    4584    4602    4605    4683       3    4584    4590    4593    4668      14
    4581    4584    4602    4680       7    4581    4584    4590    4608       7
    4581    4611    4614    4686      11    4581    4611    4614    4689      11
    4578    4581    4584    4587      30    4578    4581   -4584    4587       3
    4578    4581   -4584    4587      31    4902    4821    4824    4905       6
    4896    4815    4818    4899       6    4896    4815    4821    4902       7
    4890    4806    4809    4893       8    4887    4806    4809    4893       8
    4884    4803    4806    4887       7    4884    4803    4806    4890       7
    4878    4797    4803    4884       7    4878    4797    4800    4881       6
    4875    4794    4821    4902       7    4875    4794    4797    4878       7
    4866    4785    4788    4869       7    4866    4785    4788    4872       7
    4863    4785    4788    4869       7    4863    4785    4788    4872       7
    4860    4782    4785    4866       9    4860    4782    4785    4863       9
    4857    4782    4785    4866       9    4857    4782    4785    4863       9
    4854    4779    4782    4860       7    4854    4779    4782    4857       7
    4851    4779    4782    4860       7    4851    4779    4782    4857       7
    4848    4770    4926    5001       2    4848    4770    4926    4923       2
    4845    4767    4770    4848       3    4845    4767    4770    4926       4
    4845    4767   -4770    4926       3    4845    4767   -4770    4926       5
    4842    4764    4767    4845      10    4839    4764    4767    4845      10
    4833    4758    4761    4836       3    4833    4758    4764    4842      10
    4833    4758    4764    4839      10    4827    4755    4758    4833       7
    4827    4776    4779    4851      11    4827    4776    4779    4854      11
    4824    4821    4815    4896       7    4824    4821    4794    4875      12
    4824    4821   -4794    4875      13    4821    4815    4818    4899      12
    4821    4815   -4818    4899      14    4821    4794    4797    4878       7
    4818    4815    4821    4902      12    4818    4815   -4821    4902      13
    4815    4821    4824    4905      12    4815    4821   -4824    4905      14
    4815    4821    4794    4875       7    4815    4812    4803    4884      17
    4812    4815    4818    4899       6    4812    4815    4821    4902      12
    4812    4815   -4821    4902      13    4812    4803    4797    4878      12
    4812    4803   -4797    4878      13    4812    4803    4806    4887      12
    4812    4803   -4806    4887      13    4812    4803    4806    4890      12
    4812    4803   -4806    4890      13    4809    4806    4803    4884      12
    4809    4806   -4803    4884      13    4806    4803    4797    4878       7
    4803    4812    4815    4896      17    4803    4797    4794    4875       7
    4803    4797    4800    4881      12    4803    4797   -4800    4881      14
    4803    4806    4809    4893      12    4803    4806   -4809    4893      14
    4800    4797    4794    4875      12    4800    4797   -4794    4875      13
    4800    4797    4803    4884      12    4800    4797   -4803    4884      13
    4797    4794    4821    4902       7    4797    4803    4806    4887       7
    4797    4803    4806    4890       7    4794    4821    4824    4905      12
    4794    4821   -4824    4905      14    4794    4821    4815    4896       7
    4794    4791    4788    4869      17    4794    4791    4788    4872      17
    4794    4797    4803    4884       7    4794    4797    4800    4881      12
    4794    4797   -4800    4881      14    4791    4788    4785    4866      12
    4791    4788   -4785    4866      13    4791    4788    4785    4863      12
    4791    4788   -4785    4863      13    4791    4794    4821    4902      12
    4791    4794   -4821    4902      13    4791    4794    4797    4878      12
    4791    4794   -4797    4878      13    4788    4791    4794    4875      17
    4788    4785    4782    4860      23    4788    4785    4782    4857      23
    4785    4782    4779    4851       7    4785    4782    4779    4854       7
    4782    4785    4788    4869       7    4782    4785    4788    4872       7
    4779    4782    4785    4866      23    4779    4782    4785    4863      23
    4776    4779    4782    4860       7    4776    4779    4782    4857       7
    4773    4755    4758    4833      10    4773    4755    4827    4830      30
    4773    4755   -4827    4830       3    4773    4755   -4827    4830      31
    4773    4755    4827    4776      11    4770    4767    4764    4842       7
    4770    4767    4764    4839       7    4770    4926    4923    4998       4
    4770    4926   -4923    4998       3    4770    4926   -4923    4998       5
    4767    4764    4758    4833      14    4767    4770    4926    5001       2
    4767    4749    4755    4773      14    4764    4758    4761    4836       3
    4764    4758    4755    4773      14    4764    4767    4770    4848       3
    4761    4758    4764    4842       7    4761    4758    4764    4839       7
    4761    4758    4755    4773       7    4758    4764    4767    4845      14
    4755    4758    4761    4836       3    4755    4758    4764    4842      14
    4755    4758    4764    4839      14    4755    4749    4767    4845      14
    4752    4749    4767    4845      10    4752    4749    4767    4764      14
    4752    4749    4767    4770       7    4752    4749    4755    4758      14
    4752    4749    4755    4827       7    4752    4749    4755    4773      10
    4752    4749    4746    4776      11    4749    4767    4764    4842      14
    4749    4767    4764    4839      14    4749    4767    4770    4848       3
    4749    4755    4758    4833      14    4746    4749    4767    4845       7
    4746    4749    4755    4773       7    4746    4776    4779    4851      11
    4746    4776    4779    4854      11    4743    4746    4749    4752      30
    4743    4746   -4749    4752       3    4743    4746   -4749    4752      31
    5067    4986    4989    5070       6    5061    4980    4983    5064       6
    5061    4980    4986    5067       7    5055    4971    4974    5058       8
    5052    4971    4974    5058       8    5049    4968    4971    5052       7
    5049    4968    4971    5055       7    5043    4962    4968    5049       7
    5043    4962    4965    5046       6    5040    4959    4986    5067       7
    5040    4959    4962    5043       7    5031    4950    4953    5034       7
    5031    4950    4953    5037       7    5028    4950    4953    5034       7
    5028    4950    4953    5037       7    5025    4947    4950    5031       9
    5025    4947    4950    5028       9    5022    4947    4950    5031       9
    5022    4947    4950    5028       9    5019    4944    4947    5025       7
    5019    4944    4947    5022       7    5016    4944    4947    5025       7
    5016    4944    4947    5022       7    5013    4935    5073    5076       2
    5013    4935    5073    5079       2    5010    4932    4935    5013       3
    5010    4932    4935    5073       4    5010    4932   -4935    5073       3
    5010    4932   -4935    5073       5    5007    4929    4932    5010      10
    5004    4929    4932    5010      10    4998    4923    4926    5001       3
    4998    4923    4929    5007      10    4998    4923    4929    5004      10
    4992    4920    4923    4998       7    4992    4941    4944    5016      11
    4992    4941    4944    5019      11    4989    4986    4980    5061       7
    4989    4986    4959    5040      12    4989    4986   -4959    5040      13
    4986    4980    4983    5064      12    4986    4980   -4983    5064      14
    4986    4959    4962    5043       7    4983    4980    4986    5067      12
    4983    4980   -4986    5067      13    4980    4986    4989    5070      12
    4980    4986   -4989    5070      14    4980    4986    4959    5040       7
    4980    4977    4968    5049      17    4977    4980    4983    5064       6
    4977    4980    4986    5067      12    4977    4980   -4986    5067      13
    4977    4968    4962    5043      12    4977    4968   -4962    5043      13
    4977    4968    4971    5052      12    4977    4968   -4971    5052      13
    4977    4968    4971    5055      12    4977    4968   -4971    5055      13
    4974    4971    4968    5049      12    4974    4971   -4968    5049      13
    4971    4968    4962    5043       7    4968    4977    4980    5061      17
    4968    4962    4959    5040       7    4968    4962    4965    5046      12
    4968    4962   -4965    5046      14    4968    4971    4974    5058      12
    4968    4971   -4974    5058      14    4965    4962    4959    5040      12
    4965    4962   -4959    5040      13    4965    4962    4968    5049      12
    4965    4962   -4968    5049      13    4962    4959    4986    5067       7
    4962    4968    4971    5052       7    4962    4968    4971    5055       7
    4959    4986    4989    5070      12    4959    4986   -4989    5070      14
    4959    4986    4980    5061       7    4959    4956    4953    5034      17
    4959    4956    4953    5037      17    4959    4962    4968    5049       7
    4959    4962    4965    5046      12    4959    4962   -4965    5046      14
    4956    4953    4950    5031      12    4956    4953   -4950    5031      13
    4956    4953    4950    5028      12    4956    4953   -4950    5028      13
    4956    4959    4986    5067      12    4956    4959   -4986    5067      13
    4956    4959    4962    5043      12    4956    4959   -4962    5043      13
    4953    4956    4959    5040      17    4953    4950    4947    5025      23
    4953    4950    4947    5022      23    4950    4947    4944    5016       7
    4950    4947    4944    5019       7    4947    4950    4953    5034       7
    4947    4950    4953    5037       7    4944    4947    4950    5031      23
    4944    4947    4950    5028      23    4941    4944    4947    5025       7
    4941    4944    4947    5022       7    4938    4920    4923    4998      10
    4938    4920    4992    4995      30    4938    4920   -4992    4995       3
    4938    4920   -4992    4995      31    4938    4920    4992    4941      11
    4935    4932    4929    5007       7    4935    4932    4929    5004       7
    4932    4929    4923    4998      14    4932    4935    5073    5076       2
    4932    4935    5073    5079       2    4932    4914    4920    4938      14
    4929    4923    4926    5001       3    4929    4923    4920    4938      14
    4929    4932    4935    5013       3    4926    4923    4929    5007       7
    4926    4923    4929    5004       7    4926    4923    4920    4938       7
    4923    4929    4932    5010      14    4920    4923    4926    5001       3
    4920    4923    4929    5007      14    4920    4923    4929    5004      14
    4920    4914    4932    5010      14    4917    4914    4932    5010      10
    4917    4914    4932    4929      14    4917    4914    4932    4935       7
    4917    4914    4920    4923      14    4917    4914    4920    4992       7
    4917    4914    4920    4938      10    4917    4914    4911    4941      11
    4914    4932    4929    5007      14    4914    4932    4929    5004      14
    4914    4932    4935    5013       3    4914    4920    4923    4998      14
    4911    4914    4932    5010       7    4911    4914    4920    4938       7
    4911    4941    4944    5016      11    4911    4941    4944    5019      11
    4908    4911    4914    4917      30    4908    4911   -4914    4917       3
    4908    4911   -4914    4917      31       0      36     -39     -75      35
      30      36     -33     -72      35      27      33     -30     -69      35
      21      27     -24     -66      35      18      24     -21     -63      35
      15      21     -18     -60      35       9      15     -12     -57      35
       6      12      -9     -54      35       0       6      -3     -51      35
      48       0     -39      -3      35     105      81     -78     -84      35
     270     111    -114    -192      35      78     102    -105    -180      35
     435     276    -279    -357      35     114     267    -270    -345      35
     600     441    -444    -522      35     279     432    -435    -510      35
     765     606    -609    -687      35     444     597    -600    -675      35
     930     771    -774    -852      35     609     762    -765    -840      35
    1095     936    -939   -1017      35     774     927    -930   -1005      35
    1260    1101   -1104   -1182      35     939    1092   -1095   -1170      35
    1425    1266   -1269   -1347      35    1104    1257   -1260   -1335      35
    1590    1431   -1434   -1512      35    1269    1422   -1425   -1500      35
    1737    1596   -1599   -1677      35    1434    1587   -1590   -1665      35
    1599    1740   -1737   -1743      35    1773    1749   -1746   -1752      35
    1938    1779   -1782   -1860      35    1746    1770   -1773   -1848      35
    2103    1944   -1947   -2025      35    1782    1935   -1938   -2013      35
    2268    2109   -2112   -2190      35    1947    2100   -2103   -2178      35
    2433    2274   -2277   -2355      35    2112    2265   -2268   -2343      35
    2598    2439   -2442   -2520      35    2277    2430   -2433   -2508      35
    2763    2604   -2607   -2685      35    2442    2595   -2598   -2673      35
    2928    2769   -2772   -2850      35    2607    2760   -2763   -2838      35
    3093    2934   -2937   -3015      35    2772    2925   -2928   -3003      35
    3258    3099   -3102   -3180      35    2937    3090   -3093   -3168      35
    3405    3264   -3267   -3345      35    3102    3255   -3258   -3333      35
    3267    3408   -3405   -3411      35    3441    3417   -3414   -3420      35
    3606    3447   -3450   -3528      35    3414    3438   -3441   -3516      35
    3771    3612   -3615   -3693      35    3450    3603   -3606   -3681      35
    3936    3777   -3780   -3858      35    3615    3768   -3771   -3846      35
    4101    3942   -3945   -4023      35    3780    3933   -3936   -4011      35
    4266    4107   -4110   -4188      35    3945    4098   -4101   -4176      35
    4431    4272   -4275   -4353      35    4110    4263   -4266   -4341      35
    4596    4437   -4440   -4518      35    4275    4428   -4431   -4506      35
    4761    4602   -4605   -4683      35    4440    4593   -4596   -4671      35
    4926    4767   -4770   -4848      35    4605    4758   -4761   -4836      35
    5073    4932   -4935   -5013      35    4770    4923   -4926   -5001      35
    4935    5076   -5073   -5079      35
%FLAG DIHEDRALS_WITHOUT_HYDROGEN                                                
%FORMAT(10I8)                                                                   
      39      36      42      45       1      33      30      27      45       1
      33      36     -42      45       1      30      33      36      42       1
      30      33      36      39       1      30      27     -45      42       1
      27      30      33      36       1      27      45     -42      36       1
      24      27      30      33       1      24      27      45      42       1
      21      24      27      30       1      21      24      27      45       1
      21      18     -15      45       1      18      15      45      27       1
      18      15      45      42       1      18      21     -24      27       1
      15      45      27      30       1      15      45      27      24       1
      15      45      42      36       1      15      18     -21      24       1
      12      15      45      27       1      12      15      45      42       1
      12      15      18      21       1      12       9      -6      42       1
       9      12      15      45       1       9      12      15      18       1
       9       6     -42      45       1       9       6      42      36       1
       6       9      12      15       1       6      42      45      27       1
       6      42     -45      15       1       6      42      36      33       1
       6      42      36      39       1      39       0      -3       6       1
       3       6       9      12       1       3       6      42      45       1
       3       6      42      36       1       3       0     -39      36       1
       0      39      36      33       1       0      39      36      42       1
       0       3       6       9       1       0       3      -6      42       1
      78     105     102     108       3      78     105     102      99       3
     162     159     165     168      15     162     159    -165     168      16
     156     159     165     168      15     156     159    -165     168      16
     153     150     147     156      15     153     150    -147     156      16
     150     147     156     159      18     150     147    -156     159      19
     147     156     159     162      17     147     156     159     165      18
     147     156    -159     165      19     147     141    -138     165      20
     147     141    -138     165      21     147     141    -138     165      22
     144     141     138     165       7     144     141     147     156      15
     144     141    -147     156      16     144     141     147     150       7
     141     138     165     168       7     141     138     165     159      20
     141     138    -165     159      21     141     138    -165     159      22
     141     147    -156     159      18     141     147    -156     159      19
     141     147     150     153       7     138     165     159     162       7
     138     165     159     156       7     138     141    -147     156       7
     138     141     147     150      20     138     141    -147     150      21
     138     141    -147     150      22     135     138     165     168      15
     135     138    -165     168      16     135     138     165     159       7
     135     138     141     147       7     135     138     141     144      15
     135     138    -141     144      16     132     135     138     165      18
     132     135    -138     165      19     132     135     138     141      18
     132     135    -138     141      19     129     132     135     138      18
     129     132    -135     138      19     126     129     132     135       7
     126     123     120     171      24     126     123    -120     171      25
     126     123    -120     171      26     123     126     129     132      27
     123     120     171     174      28     120     123     126     129      29
     114     270     267     273       3     114     270     267     264       3
     111     114     270     267       2     111      93      99     171       7
     111      93      90     120      32     111      93     -90     120      33
     108     102      99     171       7     108     111     114     270       3
     105     102     108     111       7     105     102      99     171       7
     102     108     111     114       7     102      99     171     174      11
     102      99     171     120      32     102      99    -171     120      33
     102      99     -93     111      20     102      99     -93     111      21
     102      99     -93     111      22      99     102    -108     111      20
      99     102    -108     111      21      99     102    -108     111      22
      99     171     120     123      34      99     171    -120     123       3
      99      93    -111     108      20      99      93    -111     108      21
      99      93    -111     108      22      99      93     111     114       7
      99      93     -90     120      32      99      93     -90     120      33
      93     111    -108     102      20      93     111    -108     102      21
      93     111    -108     102      22      93     111     114     270       3
      93      99     102     105       7      93      99    -102     108      20
      93      99    -102     108      21      93      99    -102     108      22
      93      99     171     174      11      93      99    -171     120      32
      93      99    -171     120      33      93      90    -120     171      28
      93      90     120     123      34      93      90    -120     123       3
      90      93     111     108       7      90      93     111     114       7
      90      93      99     102       7      90      93     -99     171       7
      90     120    -171      99      28      90     120     171     174      28
      90     120     123     126      24      90     120    -123     126      25
      90     120    -123     126      26      87      90      93     111      11
      87      90      93      99      11      87      90     120     171      28
      87      90     120     123      28     327     324     330     333      15
     327     324    -330     333      16     321     324     330     333      15
     321     324    -330     333      16     318     315     312     321      15
     318     315    -312     321      16     315     312     321     324      18
     315     312    -321     324      19     312     321     324     327      17
     312     321     324     330      18     312     321    -324     330      19
     312     306    -303     330      20     312     306    -303     330      21
     312     306    -303     330      22     309     306     303     330       7
     309     306     312     321      15     309     306    -312     321      16
     309     306     312     315       7     306     303     330     333       7
     306     303     330     324      20     306     303    -330     324      21
     306     303    -330     324      22     306     312    -321     324      18
     306     312    -321     324      19     306     312     315     318       7
     303     330     324     327       7     303     330     324     321       7
     303     306    -312     321       7     303     306     312     315      20
     303     306    -312     315      21     303     306    -312     315      22
     300     303     330     333      15     300     303    -330     333      16
     300     303     330     324       7     300     303     306     312       7
     300     303     306     309      15     300     303    -306     309      16
     297     300     303     330      18     297     300    -303     330      19
     297     300     303     306      18     297     300    -303     306      19
     294     297     300     303      18     294     297    -300     303      19
     291     294     297     300       7     291     288     285     336      24
     291     288    -285     336      25     291     288    -285     336      26
     288     291     294     297      27     288     285     336     339      28
     285     288     291     294      29     279     435     432     438       3
     279     435     432     429       3     276     279     435     432       2
     276     258     264     336       7     276     258     255     285      32
     276     258    -255     285      33     273     267     264     336       7
     273     276     279     435       3     270     267     273     276       7
     270     267     264     336       7     267     273     276     279       7
     267     264     336     339      11     267     264     336     285      32
     267     264    -336     285      33     267     264    -258     276      20
     267     264    -258     276      21     267     264    -258     276      22
     264     267    -273     276      20     264     267    -273     276      21
     264     267    -273     276      22     264     336     285     288      34
     264     336    -285     288       3     264     258    -276     273      20
     264     258    -276     273      21     264     258    -276     273      22
     264     258     276     279       7     264     258    -255     285      32
     264     258    -255     285      33     258     276    -273     267      20
     258     276    -273     267      21     258     276    -273     267      22
     258     276     279     435       3     258     264     267     270       7
     258     264    -267     273      20     258     264    -267     273      21
     258     264    -267     273      22     258     264     336     339      11
     258     264    -336     285      32     258     264    -336     285      33
     258     255    -285     336      28     258     255     285     288      34
     258     255    -285     288       3     255     258     276     273       7
     255     258     276     279       7     255     258     264     267       7
     255     258    -264     336       7     255     285    -336     264      28
     255     285     336     339      28     255     285     288     291      24
     255     285    -288     291      25     255     285    -288     291      26
     252     255     258     276      11     252     255     258     264      11
     252     255     285     336      28     252     255     285     288      28
     492     489     495     498      15     492     489    -495     498      16
     486     489     495     498      15     486     489    -495     498      16
     483     480     477     486      15     483     480    -477     486      16
     480     477     486     489      18     480     477    -486     489      19
     477     486     489     492      17     477     486     489     495      18
     477     486    -489     495      19     477     471    -468     495      20
     477     471    -468     495      21     477     471    -468     495      22
     474     471     468     495       7     474     471     477     486      15
     474     471    -477     486      16     474     471     477     480       7
     471     468     495     498       7     471     468     495     489      20
     471     468    -495     489      21     471     468    -495     489      22
     471     477    -486     489      18     471     477    -486     489      19
     471     477     480     483       7     468     495     489     492       7
     468     495     489     486       7     468     471    -477     486       7
     468     471     477     480      20     468     471    -477     480      21
     468     471    -477     480      22     465     468     495     498      15
     465     468    -495     498      16     465     468     495     489       7
     465     468     471     477       7     465     468     471     474      15
     465     468    -471     474      16     462     465     468     495      18
     462     465    -468     495      19     462     465     468     471      18
     462     465    -468     471      19     459     462     465     468      18
     459     462    -465     468      19     456     459     462     465       7
     456     453     450     501      24     456     453    -450     501      25
     456     453    -450     501      26     453     456     459     462      27
     453     450     501     504      28     450     453     456     459      29
     444     600     597     603       3     444     600     597     594       3
     441     444     600     597       2     441     423     429     501       7
     441     423     420     450      32     441     423    -420     450      33
     438     432     429     501       7     438     441     444     600       3
     435     432     438     441       7     435     432     429     501       7
     432     438     441     444       7     432     429     501     504      11
     432     429     501     450      32     432     429    -501     450      33
     432     429    -423     441      20     432     429    -423     441      21
     432     429    -423     441      22     429     432    -438     441      20
     429     432    -438     441      21     429     432    -438     441      22
     429     501     450     453      34     429     501    -450     453       3
     429     423    -441     438      20     429     423    -441     438      21
     429     423    -441     438      22     429     423     441     444       7
     429     423    -420     450      32     429     423    -420     450      33
     423     441    -438     432      20     423     441    -438     432      21
     423     441    -438     432      22     423     441     444     600       3
     423     429     432     435       7     423     429    -432     438      20
     423     429    -432     438      21     423     429    -432     438      22
     423     429     501     504      11     423     429    -501     450      32
     423     429    -501     450      33     423     420    -450     501      28
     423     420     450     453      34     423     420    -450     453       3
     420     423     441     438       7     420     423     441     444       7
     420     423     429     432       7     420     423    -429     501       7
     420     450    -501     429      28     420     450     501     504      28
     420     450     453     456      24     420     450    -453     456      25
     420     450    -453     456      26     417     420     423     441      11
     417     420     423     429      11     417     420     450     501      28
     417     420     450     453      28     657     654     660     663      15
     657     654    -660     663      16     651     654     660     663      15
     651     654    -660     663      16     648     645     642     651      15
     648     645    -642     651      16     645     642     651     654      18
     645     642    -651     654      19     642     651     654     657      17
     642     651     654     660      18     642     651    -654     660      19
     642     636    -633     660      20     642     636    -633     660      21
     642     636    -633     660      22     639     636     633     660       7
     639     636     642     651      15     639     636    -642     651      16
     639     636     642     645       7     636     633     660     663       7
     636     633     660     654      20     636     633    -660     654      21
     636     633    -660     654      22     636     642    -651     654      18
     636     642    -651     654      19     636     642     645     648       7
     633     660     654     657       7     633     660     654     651       7
     633     636    -642     651       7     633     636     642     645      20
     633     636    -642     645      21     633     636    -642     645      22
     630     633     660     663      15     630     633    -660     663      16
     630     633     660     654       7     630     633     636     642       7
     630     633     636     639      15     630     633    -636     639      16
     627     630     633     660      18     627     630    -633     660      19
     627     630     633     636      18     627     630    -633     636      19
     624     627     630     633      18     624     627    -630     633      19
     621     624     627     630       7     621     618     615     666      24
     621     618    -615     666      25     621     618    -615     666      26
     618     621     624     627      27     618     615     666     669      28
     615     618     621     624      29     609     765     762     768       3
     609     765     762     759       3     606     609     765     762       2
     606     588     594     666       7     606     588     585     615      32
     606     588    -585     615      33     603     597     594     666       7
     603     606     609     765       3     600     597     603     606       7
     600     597     594     666       7     597     603     606     609       7
     597     594     666     669      11     597     594     666     615      32
     597     594    -666     615      33     597     594    -588     606      20
     597     594    -588     606      21     597     594    -588     606      22
     594     597    -603     606      20     594     597    -603     606      21
     594     597    -603     606      22     594     666     615     618      34
     594     666    -615     618       3     594     588    -606     603      20
     594     588    -606     603      21     594     588    -606     603      22
     594     588     606     609       7     594     588    -585     615      32
     594     588    -585     615      33     588     606    -603     597      20
     588     606    -603     597      21     588     606    -603     597      22
     588     606     609     765       3     588     594     597     600       7
     588     594    -597     603      20     588     594    -597     603      21
     588     594    -597     603      22     588     594     666     669      11
     588     594    -666     615      32     588     594    -666     615      33
     588     585    -615     666      28     588     585     615     618      34
     588     585    -615     618       3     585     588     606     603       7
     585     588     606     609       7     585     588     594     597       7
     585     588    -594     666       7     585     615    -666     594      28
     585     615     666     669      28     585     615     618     621      24
     585     615    -618     621      25     585     615    -618     621      26
     582     585     588     606      11     582     585     588     594      11
     582     585     615     666      28     582     585     615     618      28
     822     819     825     828      15     822     819    -825     828      16
     816     819     825     828      15     816     819    -825     828      16
     813     810     807     816      15     813     810    -807     816      16
     810     807     816     819      18     810     807    -816     819      19
     807     816     819     822      17     807     816     819     825      18
     807     816    -819     825      19     807     801    -798     825      20
     807     801    -798     825      21     807     801    -798     825      22
     804     801     798     825       7     804     801     807     816      15
     804     801    -807     816      16     804     801     807     810       7
     801     798     825     828       7     801     798     825     819      20
     801     798    -825     819      21     801     798    -825     819      22
     801     807    -816     819      18     801     807    -816     819      19
     801     807     810     813       7     798     825     819     822       7
     798     825     819     816       7     798     801    -807     816       7
     798     801     807     810      20     798     801    -807     810      21
     798     801    -807     810      22     795     798     825     828      15
     795     798    -825     828      16     795     798     825     819       7
     795     798     801     807       7     795     798     801     804      15
     795     798    -801     804      16     792     795     798     825      18
     792     795    -798     825      19     792     795     798     801      18
     792     795    -798     801      19     789     792     795     798      18
     789     792    -795     798      19     786     789     792     795       7
     786     783     780     831      24     786     783    -780     831      25
     786     783    -780     831      26     783     786     789     792      27
     783     780     831     834      28     780     783     786     789      29
     774     930     927     933       3     774     930     927     924       3
     771     774     930     927       2     771     753     759     831       7
     771     753     750     780      32     771     753    -750     780      33
     768     762     759     831       7     768     771     774     930       3
     765     762     768     771       7     765     762     759     831       7
     762     768     771     774       7     762     759     831     834      11
     762     759     831     780      32     762     759    -831     780      33
     762     759    -753     771      20     762     759    -753     771      21
     762     759    -753     771      22     759     762    -768     771      20
     759     762    -768     771      21     759     762    -768     771      22
     759     831     780     783      34     759     831    -780     783       3
     759     753    -771     768      20     759     753    -771     768      21
     759     753    -771     768      22     759     753     771     774       7
     759     753    -750     780      32     759     753    -750     780      33
     753     771    -768     762      20     753     771    -768     762      21
     753     771    -768     762      22     753     771     774     930       3
     753     759     762     765       7     753     759    -762     768      20
     753     759    -762     768      21     753     759    -762     768      22
     753     759     831     834      11     753     759    -831     780      32
     753     759    -831     780      33     753     750    -780     831      28
     753     750     780     783      34     753     750    -780     783       3
     750     753     771     768       7     750     753     771     774       7
     750     753     759     762       7     750     753    -759     831       7
     750     780    -831     759      28     750     780     831     834      28
     750     780     783     786      24     750     780    -783     786      25
     750     780    -783     786      26     747     750     753     771      11
     747     750     753     759      11     747     750     780     831      28
     747     750     780     783      28     987     984     990     993      15
     987     984    -990     993      16     981     984     990     993      15
     981     984    -990     993      16     978     975     972     981      15
     978     975    -972     981      16     975     972     981     984      18
     975     972    -981     984      19     972     981     984     987      17
     972     981     984     990      18     972     981    -984     990      19
     972     966    -963     990      20     972     966    -963     990      21
     972     966    -963     990      22     969     966     963     990       7
     969     966     972     981      15     969     966    -972     981      16
     969     966     972     975       7     966     963     990     993       7
     966     963     990     984      20     966     963    -990     984      21
     966     963    -990     984      22     966     972    -981     984      18
     966     972    -981     984      19     966     972     975     978       7
     963     990     984     987       7     963     990     984     981       7
     963     966    -972     981       7     963     966     972     975      20
     963     966    -972     975      21     963     966    -972     975      22
     960     963     990     993      15     960     963    -990     993      16
     960     963     990     984       7     960     963     966     972       7
     960     963     966     969      15     960     963    -966     969      16
     957     960     963     990      18     957     960    -963     990      19
     957     960     963     966      18     957     960    -963     966      19
     954     957     960     963      18     954     957    -960     963      19
     951     954     957     960       7     951     948     945     996      24
     951     948    -945     996      25     951     948    -945     996      26
     948     951     954     957      27     948     945     996     999      28
     945     948     951     954      29     939    1095    1092    1098       3
     939    1095    1092    1089       3     936     939    1095    1092       2
     936     918     924     996       7     936     918     915     945      32
     936     918    -915     945      33     933     927     924     996       7
     933     936     939    1095       3     930     927     933     936       7
     930     927     924     996       7     927     933     936     939       7
     927     924     996     999      11     927     924     996     945      32
     927     924    -996     945      33     927     924    -918     936      20
     927     924    -918     936      21     927     924    -918     936      22
     924     927    -933     936      20     924     927    -933     936      21
     924     927    -933     936      22     924     996     945     948      34
     924     996    -945     948       3     924     918    -936     933      20
     924     918    -936     933      21     924     918    -936     933      22
     924     918     936     939       7     924     918    -915     945      32
     924     918    -915     945      33     918     936    -933     927      20
     918     936    -933     927      21     918     936    -933     927      22
     918     936     939    1095       3     918     924     927     930       7
     918     924    -927     933      20     918     924    -927     933      21
     918     924    -927     933      22     918     924     996     999      11
     918     924    -996     945      32     918     924    -996     945      33
     918     915    -945     996      28     918     915     945     948      34
     918     915    -945     948       3     915     918     936     933       7
     915     918     936     939       7     915     918     924     927       7
     915     918    -924     996       7     915     945    -996     924      28
     915     945     996     999      28     915     945     948     951      24
     915     945    -948     951      25     915     945    -948     951      26
     912     915     918     936      11     912     915     918     924      11
     912     915     945     996      28     912     915     945     948      28
    1152    1149    1155    1158      15    1152    1149   -1155    1158      16
    1146    1149    1155    1158      15    1146    1149   -1155    1158      16
    1143    1140    1137    1146      15    1143    1140   -1137    1146      16
    1140    1137    1146    1149      18    1140    1137   -1146    1149      19
    1137    1146    1149    1152      17    1137    1146    1149    1155      18
    1137    1146   -1149    1155      19    1137    1131   -1128    1155      20
    1137    1131   -1128    1155      21    1137    1131   -1128    1155      22
    1134    1131    1128    1155       7    1134    1131    1137    1146      15
    1134    1131   -1137    1146      16    1134    1131    1137    1140       7
    1131    1128    1155    1158       7    1131    1128    1155    1149      20
    1131    1128   -1155    1149      21    1131    1128   -1155    1149      22
    1131    1137   -1146    1149      18    1131    1137   -1146    1149      19
    1131    1137    1140    1143       7    1128    1155    1149    1152       7
    1128    1155    1149    1146       7    1128    1131   -1137    1146       7
    1128    1131    1137    1140      20    1128    1131   -1137    1140      21
    1128    1131   -1137    1140      22    1125    1128    1155    1158      15
    1125    1128   -1155    1158      16    1125    1128    1155    1149       7
    1125    1128    1131    1137       7    1125    1128    1131    1134      15
    1125    1128   -1131    1134      16    1122    1125    1128    1155      18
    1122    1125   -1128    1155      19    1122    1125    1128    1131      18
    1122    1125   -1128    1131      19    1119    1122    1125    1128      18
    1119    1122   -1125    1128      19    1116    1119    1122    1125       7
    1116    1113    1110    1161      24    1116    1113   -1110    1161      25
    1116    1113   -1110    1161      26    1113    1116    1119    1122      27
    1113    1110    1161    1164      28    1110    1113    1116    1119      29
    1104    1260    1257    1263       3    1104    1260    1257    1254       3
    1101    1104    1260    1257       2    1101    1083    1089    1161       7
    1101    1083    1080    1110      32    1101    1083   -1080    1110      33
    1098    1092    1089    1161       7    1098    1101    1104    1260       3
    1095    1092    1098    1101       7    1095    1092    1089    1161       7
    1092    1098    1101    1104       7    1092    1089    1161    1164      11
    1092    1089    1161    1110      32    1092    1089   -1161    1110      33
    1092    1089   -1083    1101      20    1092    1089   -1083    1101      21
    1092    1089   -1083    1101      22    1089    1092   -1098    1101      20
    1089    1092   -1098    1101      21    1089    1092   -1098    1101      22
    1089    1161    1110    1113      34    1089    1161   -1110    1113       3
    1089    1083   -1101    1098      20    1089    1083   -1101    1098      21
    1089    1083   -1101    1098      22    1089    1083    1101    1104       7
    1089    1083   -1080    1110      32    1089    1083   -1080    1110      33
    1083    1101   -1098    1092      20    1083    1101   -1098    1092      21
    1083    1101   -1098    1092      22    1083    1101    1104    1260       3
    1083    1089    1092    1095       7    1083    1089   -1092    1098      20
    1083    1089   -1092    1098      21    1083    1089   -1092    1098      22
    1083    1089    1161    1164      11    1083    1089   -1161    1110      32
    1083    1089   -1161    1110      33    1083    1080   -1110    1161      28
    1083    1080    1110    1113      34    1083    1080   -1110    1113       3
    1080    1083    1101    1098       7    1080    1083    1101    1104       7
    1080    1083    1089    1092       7    1080    1083   -1089    1161       7
    1080    1110   -1161    1089      28    1080    1110    1161    1164      28
    1080    1110    1113    1116      24    1080    1110   -1113    1116      25
    1080    1110   -1113    1116      26    1077    1080    1083    1101      11
    1077    1080    1083    1089      11    1077    1080    1110    1161      28
    1077    1080    1110    1113      28    1317    1314    1320    1323      15
    1317    1314   -1320    1323      16    1311    1314    1320    1323      15
    1311    1314   -1320    1323      16    1308    1305    1302    1311      15
    1308    1305   -1302    1311      16    1305    1302    1311    1314      18
    1305    1302   -1311    1314      19    1302    1311    1314    1317      17
    1302    1311    1314    1320      18    1302    1311   -1314    1320      19
    1302    1296   -1293    1320      20    1302    1296   -1293    1320      21
    1302    1296   -1293    1320      22    1299    1296    1293    1320       7
    1299    1296    1302    1311      15    1299    1296   -1302    1311      16
    1299    1296    1302    1305       7    1296    1293    1320    1323       7
    1296    1293    1320    1314      20    1296    1293   -1320    1314      21
    1296    1293   -1320    1314      22    1296    1302   -1311    1314      18
    1296    1302   -1311    1314      19    1296    1302    1305    1308       7
    1293    1320    1314    1317       7    1293    1320    1314    1311       7
    1293    1296   -1302    1311       7    1293    1296    1302    1305      20
    1293    1296   -1302    1305      21    1293    1296   -1302    1305      22
    1290    1293    1320    1323      15    1290    1293   -1320    1323      16
    1290    1293    1320    1314       7    1290    1293    1296    1302       7
    1290    1293    1296    1299      15    1290    1293   -1296    1299      16
    1287    1290    1293    1320      18    1287    1290   -1293    1320      19
    1287    1290    1293    1296      18    1287    1290   -1293    1296      19
    1284    1287    1290    1293      18    1284    1287   -1290    1293      19
    1281    1284    1287    1290       7    1281    1278    1275    1326      24
    1281    1278   -1275    1326      25    1281    1278   -1275    1326      26
    1278    1281    1284    1287      27    1278    1275    1326    1329      28
    1275    1278    1281    1284      29    1269    1425    1422    1428       3
    1269    1425    1422    1419       3    1266    1269    1425    1422       2
    1266    1248    1254    1326       7    1266    1248    1245    1275      32
    1266    1248   -1245    1275      33    1263    1257    1254    1326       7
    1263    1266    1269    1425       3    1260    1257    1263    1266       7
    1260    1257    1254    1326       7    1257    1263    1266    1269       7
    1257    1254    1326    1329      11    1257    1254    1326    1275      32
    1257    1254   -1326    1275      33    1257    1254   -1248    1266      20
    1257    1254   -1248    1266      21    1257    1254   -1248    1266      22
    1254    1257   -1263    1266      20    1254    1257   -1263    1266      21
    1254    1257   -1263    1266      22    1254    1326    1275    1278      34
    1254    1326   -1275    1278       3    1254    1248   -1266    1263      20
    1254    1248   -1266    1263      21    1254    1248   -1266    1263      22
    1254    1248    1266    1269       7    1254    1248   -1245    1275      32
    1254    1248   -1245    1275      33    1248    1266   -1263    1257      20
    1248    1266   -1263    1257      21    1248    1266   -1263    1257      22
    1248    1266    1269    1425       3    1248    1254    1257    1260       7
    1248    1254   -1257    1263      20    1248    1254   -1257    1263      21
    1248    1254   -1257    1263      22    1248    1254    1326    1329      11
    1248    1254   -1326    1275      32    1248    1254   -1326    1275      33
    1248    1245   -1275    1326      28    1248    1245    1275    1278      34
    1248    1245   -1275    1278       3    1245    1248    1266    1263       7
    1245    1248    1266    1269       7    1245    1248    1254    1257       7
    1245    1248   -1254    1326       7    1245    1275   -1326    1254      28
    1245    1275    1326    1329      28    1245    1275    1278    1281      24
    1245    1275   -1278    1281      25    1245    1275   -1278    1281      26
    1242    1245    1248    1266      11    1242    1245    1248    1254      11
    1242    1245    1275    1326      28    1242    1245    1275    1278      28
    1482    1479    1485    1488      15    1482    1479   -1485    1488      16
    1476    1479    1485    1488      15    1476    1479   -1485    1488      16
    1473    1470    1467    1476      15    1473    1470   -1467    1476      16
    1470    1467    1476    1479      18    1470    1467   -1476    1479      19
    1467    1476    1479    1482      17    1467    1476    1479    1485      18
    1467    1476   -1479    1485      19    1467    1461   -1458    1485      20
    1467    1461   -1458    1485      21    1467    1461   -1458    1485      22
    1464    1461    1458    1485       7    1464    1461    1467    1476      15
    1464    1461   -1467    1476      16    1464    1461    1467    1470       7
    1461    1458    1485    1488       7    1461    1458    1485    1479      20
    1461    1458   -1485    1479      21    1461    1458   -1485    1479      22
    1461    1467   -1476    1479      18    1461    1467   -1476    1479      19
    1461    1467    1470    1473       7    1458    1485    1479    1482       7
    1458    1485    1479    1476       7    1458    1461   -1467    1476       7
    1458    1461    1467    1470      20    1458    1461   -1467    1470      21
    1458    1461   -1467    1470      22    1455    1458    1485    1488      15
    1455    1458   -1485    1488      16    1455    1458    1485    1479       7
    1455    1458    1461    1467       7    1455    1458    1461    1464      15
    1455    1458   -1461    1464      16    1452    1455    1458    1485      18
    1452    1455   -1458    1485      19    1452    1455    1458    1461      18
    1452    1455   -1458    1461      19    1449    1452    1455    1458      18
    1449    1452   -1455    1458      19    1446    1449    1452    1455       7
    1446    1443    1440    1491      24    1446    1443   -1440    1491      25
    1446    1443   -1440    1491      26    1443    1446    1449    1452      27
    1443    1440    1491    1494      28    1440    1443    1446    1449      29
    1434    1590    1587    1593       3    1434    1590    1587    1584       3
    1431    1434    1590    1587       2    1431    1413    1419    1491       7
    1431    1413    1410    1440      32    1431    1413   -1410    1440      33
    1428    1422    1419    1491       7    1428    1431    1434    1590       3
    1425    1422    1428    1431       7    1425    1422    1419    1491       7
    1422    1428    1431    1434       7    1422    1419    1491    1494      11
    1422    1419    1491    1440      32    1422    1419   -1491    1440      33
    1422    1419   -1413    1431      20    1422    1419   -1413    1431      21
    1422    1419   -1413    1431      22    1419    1422   -1428    1431      20
    1419    1422   -1428    1431      21    1419    1422   -1428    1431      22
    1419    1491    1440    1443      34    1419    1491   -1440    1443       3
    1419    1413   -1431    1428      20    1419    1413   -1431    1428      21
    1419    1413   -1431    1428      22    1419    1413    1431    1434       7
    1419    1413   -1410    1440      32    1419    1413   -1410    1440      33
    1413    1431   -1428    1422      20    1413    1431   -1428    1422      21
    1413    1431   -1428    1422      22    1413    1431    1434    1590       3
    1413    1419    1422    1425       7    1413    1419   -1422    1428      20
    1413    1419   -1422    1428      21    1413    1419   -1422    1428      22
    1413    1419    1491    1494      11    1413    1419   -1491    1440      32
    1413    1419   -1491    1440      33    1413    1410   -1440    1491      28
    1413    1410    1440    1443      34    1413    1410   -1440    1443       3
    1410    1413    1431    1428       7    1410    1413    1431    1434       7
    1410    1413    1419    1422       7    1410    1413   -1419    1491       7
    1410    1440   -1491    1419      28    1410    1440    1491    1494      28
    1410    1440    1443    1446      24    1410    1440   -1443    1446      25
    1410    1440   -1443    1446      26    1407    1410    1413    1431      11
    1407    1410    1413    1419      11    1407    1410    1440    1491      28
    1407    1410    1440    1443      28    1647    1644    1650    1653      15
    1647    1644   -1650    1653      16    1641    1644    1650    1653      15
    1641    1644   -1650    1653      16    1638    1635    1632    1641      15
    1638    1635   -1632    1641      16    1635    1632    1641    1644      18
    1635    1632   -1641    1644      19    1632    1641    1644    1647      17
    1632    1641    1644    1650      18    1632    1641   -1644    1650      19
    1632    1626   -1623    1650      20    1632    1626   -1623    1650      21
    1632    1626   -1623    1650      22    1629    1626    1623    1650       7
    1629    1626    1632    1641      15    1629    1626   -1632    1641      16
    1629    1626    1632    1635       7    1626    1623    1650    1653       7
    1626    1623    1650    1644      20    1626    1623   -1650    1644      21
    1626    1623   -1650    1644      22    1626    1632   -1641    1644      18
    1626    1632   -1641    1644      19    1626    1632    1635    1638       7
    1623    1650    1644    1647       7    1623    1650    1644    1641       7
    1623    1626   -1632    1641       7    1623    1626    1632    1635      20
    1623    1626   -1632    1635      21    1623    1626   -1632    1635      22
    1620    1623    1650    1653      15    1620    1623   -1650    1653      16
    1620    1623    1650    1644       7    1620    1623    1626    1632       7
    1620    1623    1626    1629      15    1620    1623   -1626    1629      16
    1617    1620    1623    1650      18    1617    1620   -1623    1650      19
    1617    1620    1623    1626      18    1617    1620   -1623    1626      19
    1614    1617    1620    1623      18    1614    1617   -1620    1623      19
    1611    1614    1617    1620       7    1611    1608    1605    1656      24
    1611    1608   -1605    1656      25    1611    1608   -1605    1656      26
    1608    1611    1614    1617      27    1608    1605    1656    1659      28
    1605    1608    1611    1614      29    1596    1578    1584    1656       7
    1596    1578    1575    1605      32    1596    1578   -1575    1605      33
    1593    1587    1584    1656       7    1593    1596    1599    1737       3
    1590    1587    1593    1596       7    1590    1587    1584    1656       7
    1587    1593    1596    1599       7    1587    1584    1656    1659      11
    1587    1584    1656    1605      32    1587    1584   -1656    1605      33
    1587    1584   -1578    1596      20    1587    1584   -1578    1596      21
    1587    1584   -1578    1596      22    1584    1587   -1593    1596      20
    1584    1587   -1593    1596      21    1584    1587   -1593    1596      22
    1584    1656    1605    1608      34    1584    1656   -1605    1608       3
    1584    1578   -1596    1593      20    1584    1578   -1596    1593      21
    1584    1578   -1596    1593      22    1584    1578    1596    1599       7
    1584    1578   -1575    1605      32    1584    1578   -1575    1605      33
    1578    1596   -1593    1587      20    1578    1596   -1593    1587      21
    1578    1596   -1593    1587      22    1578    1596    1599    1737       3
    1578    1584    1587    1590       7    1578    1584   -1587    1593      20
    1578    1584   -1587    1593      21    1578    1584   -1587    1593      22
    1578    1584    1656    1659      11    1578    1584   -1656    1605      32
    1578    1584   -1656    1605      33    1578    1575   -1605    1656      28
    1578    1575    1605    1608      34    1578    1575   -1605    1608       3
    1575    1578    1596    1593       7    1575    1578    1596    1599       7
    1575    1578    1584    1587       7    1575    1578   -1584    1656       7
    1575    1605   -1656    1584      28    1575    1605    1656    1659      28
    1575    1605    1608    1611      24    1575    1605   -1608    1611      25
    1575    1605   -1608    1611      26    1572    1575    1578    1596      11
    1572    1575    1578    1584      11    1572    1575    1605    1656      28
    1572    1575    1605    1608      28    1746    1773    1770    1776       3
    1746    1773    1770    1767       3    1830    1827    1833    1836      15
    1830    1827   -1833    1836      16    1824    1827    1833    1836      15
    1824    1827   -1833    1836      16    1821    1818    1815    1824      15
    1821    1818   -1815    1824      16    1818    1815    1824    1827      18
    1818    1815   -1824    1827      19    1815    1824    1827    1830      17
    1815    1824    1827    1833      18    1815    1824   -1827    1833      19
    1815    1809   -1806    1833      20    1815    1809   -1806    1833      21
    1815    1809   -1806    1833      22    1812    1809    1806    1833       7
    1812    1809    1815    1824      15    1812    1809   -1815    1824      16
    1812    1809    1815    1818       7    1809    1806    1833    1836       7
    1809    1806    1833    1827      20    1809    1806   -1833    1827      21
    1809    1806   -1833    1827      22    1809    1815   -1824    1827      18
    1809    1815   -1824    1827      19    1809    1815    1818    1821       7
    1806    1833    1827    1830       7    1806    1833    1827    1824       7
    1806    1809   -1815    1824       7    1806    1809    1815    1818      20
    1806    1809   -1815    1818      21    1806    1809   -1815    1818      22
    1803    1806    1833    1836      15    1803    1806   -1833    1836      16
    1803    1806    1833    1827       7    1803    1806    1809    1815       7
    1803    1806    1809    1812      15    1803    1806   -1809    1812      16
    1800    1803    1806    1833      18    1800    1803   -1806    1833      19
    1800    1803    1806    1809      18    1800    1803   -1806    1809      19
    1797    1800    1803    1806      18    1797    1800   -1803    1806      19
    1794    1797    1800    1803       7    1794    1791    1788    1839      24
    1794    1791   -1788    1839      25    1794    1791   -1788    1839      26
    1791    1794    1797    1800      27    1791    1788    1839    1842      28
    1788    1791    1794    1797      29    1782    1938    1935    1941       3
    1782    1938    1935    1932       3    1779    1782    1938    1935       2
    1779    1761    1767    1839       7    1779    1761    1758    1788      32
    1779    1761   -1758    1788      33    1776    1770    1767    1839       7
    1776    1779    1782    1938       3    1773    1770    1776    1779       7
    1773    1770    1767    1839       7    1770    1776    1779    1782       7
    1770    1767    1839    1842      11    1770    1767    1839    1788      32
    1770    1767   -1839    1788      33    1770    1767   -1761    1779      20
    1770    1767   -1761    1779      21    1770    1767   -1761    1779      22
    1767    1770   -1776    1779      20    1767    1770   -1776    1779      21
    1767    1770   -1776    1779      22    1767    1839    1788    1791      34
    1767    1839   -1788    1791       3    1767    1761   -1779    1776      20
    1767    1761   -1779    1776      21    1767    1761   -1779    1776      22
    1767    1761    1779    1782       7    1767    1761   -1758    1788      32
    1767    1761   -1758    1788      33    1761    1779   -1776    1770      20
    1761    1779   -1776    1770      21    1761    1779   -1776    1770      22
    1761    1779    1782    1938       3    1761    1767    1770    1773       7
    1761    1767   -1770    1776      20    1761    1767   -1770    1776      21
    1761    1767   -1770    1776      22    1761    1767    1839    1842      11
    1761    1767   -1839    1788      32    1761    1767   -1839    1788      33
    1761    1758   -1788    1839      28    1761    1758    1788    1791      34
    1761    1758   -1788    1791       3    1758    1761    1779    1776       7
    1758    1761    1779    1782       7    1758    1761    1767    1770       7
    1758    1761   -1767    1839       7    1758    1788   -1839    1767      28
    1758    1788    1839    1842      28    1758    1788    1791    1794      24
    1758    1788   -1791    1794      25    1758    1788   -1791    1794      26
    1755    1758    1761    1779      11    1755    1758    1761    1767      11
    1755    1758    1788    1839      28    1755    1758    1788    1791      28
    1995    1992    1998    2001      15    1995    1992   -1998    2001      16
    1989    1992    1998    2001      15    1989    1992   -1998    2001      16
    1986    1983    1980    1989      15    1986    1983   -1980    1989      16
    1983    1980    1989    1992      18    1983    1980   -1989    1992      19
    1980    1989    1992    1995      17    1980    1989    1992    1998      18
    1980    1989   -1992    1998      19    1980    1974   -1971    1998      20
    1980    1974   -1971    1998      21    1980    1974   -1971    1998      22
    1977    1974    1971    1998       7    1977    1974    1980    1989      15
    1977    1974   -1980    1989      16    1977    1974    1980    1983       7
    1974    1971    1998    2001       7    1974    1971    1998    1992      20
    1974    1971   -1998    1992      21    1974    1971   -1998    1992      22
    1974    1980   -1989    1992      18    1974    1980   -1989    1992      19
    1974    1980    1983    1986       7    1971    1998    1992    1995       7
    1971    1998    1992    1989       7    1971    1974   -1980    1989       7
    1971    1974    1980    1983      20    1971    1974   -1980    1983      21
    1971    1974   -1980    1983      22    1968    1971    1998    2001      15
    1968    1971   -1998    2001      16    1968    1971    1998    1992       7
    1968    1971    1974    1980       7    1968    1971    1974    1977      15
    1968    1971   -1974    1977      16    1965    1968    1971    1998      18
    1965    1968   -1971    1998      19    1965    1968    1971    1974      18
    1965    1968   -1971    1974      19    1962    1965    1968    1971      18
    1962    1965   -1968    1971      19    1959    1962    1965    1968       7
    1959    1956    1953    2004      24    1959    1956   -1953    2004      25
    1959    1956   -1953    2004      26    1956    1959    1962    1965      27
    1956    1953    2004    2007      28    1953    1956    1959    1962      29
    1947    2103    2100    2106       3    1947    2103    2100    2097       3
    1944    1947    2103    2100       2    1944    1926    1932    2004       7
    1944    1926    1923    1953      32    1944    1926   -1923    1953      33
    1941    1935    1932    2004       7    1941    1944    1947    2103       3
    1938    1935    1941    1944       7    1938    1935    1932    2004       7
    1935    1941    1944    1947       7    1935    1932    2004    2007      11
    1935    1932    2004    1953      32    1935    1932   -2004    1953      33
    1935    1932   -1926    1944      20    1935    1932   -1926    1944      21
    1935    1932   -1926    1944      22    1932    1935   -1941    1944      20
    1932    1935   -1941    1944      21    1932    1935   -1941    1944      22
    1932    2004    1953    1956      34    1932    2004   -1953    1956       3
    1932    1926   -1944    1941      20    1932    1926   -1944    1941      21
    1932    1926   -1944    1941      22    1932    1926    1944    1947       7
    1932    1926   -1923    1953      32    1932    1926   -1923    1953      33
    1926    1944   -1941    1935      20    1926    1944   -1941    1935      21
    1926    1944   -1941    1935      22    1926    1944    1947    2103       3
    1926    1932    1935    1938       7    1926    1932   -1935    1941      20
    1926    1932   -1935    1941      21    1926    1932   -1935    1941      22
    1926    1932    2004    2007      11    1926    1932   -2004    1953      32
    1926    1932   -2004    1953      33    1926    1923   -1953    2004      28
    1926    1923    1953    1956      34    1926    1923   -1953    1956       3
    1923    1926    1944    1941       7    1923    1926    1944    1947       7
    1923    1926    1932    1935       7    1923    1926   -1932    2004       7
    1923    1953   -2004    1932      28    1923    1953    2004    2007      28
    1923    1953    1956    1959      24    1923    1953   -1956    1959      25
    1923    1953   -1956    1959      26    1920    1923    1926    1944      11
    1920    1923    1926    1932      11    1920    1923    1953    2004      28
    1920    1923    1953    1956      28    2160    2157    2163    2166      15
    2160    2157   -2163    2166      16    2154    2157    2163    2166      15
    2154    2157   -2163    2166      16    2151    2148    2145    2154      15
    2151    2148   -2145    2154      16    2148    2145    2154    2157      18
    2148    2145   -2154    2157      19    2145    2154    2157    2160      17
    2145    2154    2157    2163      18    2145    2154   -2157    2163      19
    2145    2139   -2136    2163      20    2145    2139   -2136    2163      21
    2145    2139   -2136    2163      22    2142    2139    2136    2163       7
    2142    2139    2145    2154      15    2142    2139   -2145    2154      16
    2142    2139    2145    2148       7    2139    2136    2163    2166       7
    2139    2136    2163    2157      20    2139    2136   -2163    2157      21
    2139    2136   -2163    2157      22    2139    2145   -2154    2157      18
    2139    2145   -2154    2157      19    2139    2145    2148    2151       7
    2136    2163    2157    2160       7    2136    2163    2157    2154       7
    2136    2139   -2145    2154       7    2136    2139    2145    2148      20
    2136    2139   -2145    2148      21    2136    2139   -2145    2148      22
    2133    2136    2163    2166      15    2133    2136   -2163    2166      16
    2133    2136    2163    2157       7    2133    2136    2139    2145       7
    2133    2136    2139    2142      15    2133    2136   -2139    2142      16
    2130    2133    2136    2163      18    2130    2133   -2136    2163      19
    2130    2133    2136    2139      18    2130    2133   -2136    2139      19
    2127    2130    2133    2136      18    2127    2130   -2133    2136      19
    2124    2127    2130    2133       7    2124    2121    2118    2169      24
    2124    2121   -2118    2169      25    2124    2121   -2118    2169      26
    2121    2124    2127    2130      27    2121    2118    2169    2172      28
    2118    2121    2124    2127      29    2112    2268    2265    2271       3
    2112    2268    2265    2262       3    2109    2112    2268    2265       2
    2109    2091    2097    2169       7    2109    2091    2088    2118      32
    2109    2091   -2088    2118      33    2106    2100    2097    2169       7
    2106    2109    2112    2268       3    2103    2100    2106    2109       7
    2103    2100    2097    2169       7    2100    2106    2109    2112       7
    2100    2097    2169    2172      11    2100    2097    2169    2118      32
    2100    2097   -2169    2118      33    2100    2097   -2091    2109      20
    2100    2097   -2091    2109      21    2100    2097   -2091    2109      22
    2097    2100   -2106    2109      20    2097    2100   -2106    2109      21
    2097    2100   -2106    2109      22    2097    2169    2118    2121      34
    2097    2169   -2118    2121       3    2097    2091   -2109    2106      20
    2097    2091   -2109    2106      21    2097    2091   -2109    2106      22
    2097    2091    2109    2112       7    2097    2091   -2088    2118      32
    2097    2091   -2088    2118      33    2091    2109   -2106    2100      20
    2091    2109   -2106    2100      21    2091    2109   -2106    2100      22
    2091    2109    2112    2268       3    2091    2097    2100    2103       7
    2091    2097   -2100    2106      20    2091    2097   -2100    2106      21
    2091    2097   -2100    2106      22    2091    2097    2169    2172      11
    2091    2097   -2169    2118      32    2091    2097   -2169    2118      33
    2091    2088   -2118    2169      28    2091    2088    2118    2121      34
    2091    2088   -2118    2121       3    2088    2091    2109    2106       7
    2088    2091    2109    2112       7    2088    2091    2097    2100       7
    2088    2091   -2097    2169       7    2088    2118   -2169    2097      28
    2088    2118    2169    2172      28    2088    2118    2121    2124      24
    2088    2118   -2121    2124      25    2088    2118   -2121    2124      26
    2085    2088    2091    2109      11    2085    2088    2091    2097      11
    2085    2088    2118    2169      28    2085    2088    2118    2121      28
    2325    2322    2328    2331      15    2325    2322   -2328    2331      16
    2319    2322    2328    2331      15    2319    2322   -2328    2331      16
    2316    2313    2310    2319      15    2316    2313   -2310    2319      16
    2313    2310    2319    2322      18    2313    2310   -2319    2322      19
    2310    2319    2322    2325      17    2310    2319    2322    2328      18
    2310    2319   -2322    2328      19    2310    2304   -2301    2328      20
    2310    2304   -2301    2328      21    2310    2304   -2301    2328      22
    2307    2304    2301    2328       7    2307    2304    2310    2319      15
    2307    2304   -2310    2319      16    2307    2304    2310    2313       7
    2304    2301    2328    2331       7    2304    2301    2328    2322      20
    2304    2301   -2328    2322      21    2304    2301   -2328    2322      22
    2304    2310   -2319    2322      18    2304    2310   -2319    2322      19
    2304    2310    2313    2316       7    2301    2328    2322    2325       7
    2301    2328    2322    2319       7    2301    2304   -2310    2319       7
    2301    2304    2310    2313      20    2301    2304   -2310    2313      21
    2301    2304   -2310    2313      22    2298    2301    2328    2331      15
    2298    2301   -2328    2331      16    2298    2301    2328    2322       7
    2298    2301    2304    2310       7    2298    2301    2304    2307      15
    2298    2301   -2304    2307      16    2295    2298    2301    2328      18
    2295    2298   -2301    2328      19    2295    2298    2301    2304      18
    2295    2298   -2301    2304      19    2292    2295    2298    2301      18
    2292    2295   -2298    2301      19    2289    2292    2295    2298       7
    2289    2286    2283    2334      24    2289    2286   -2283    2334      25
    2289    2286   -2283    2334      26    2286    2289    2292    2295      27
    2286    2283    2334    2337      28    2283    2286    2289    2292      29
    2277    2433    2430    2436       3    2277    2433    2430    2427       3
    2274    2277    2433    2430       2    2274    2256    2262    2334       7
    2274    2256    2253    2283      32    2274    2256   -2253    2283      33
    2271    2265    2262    2334       7    2271    2274    2277    2433       3
    2268    2265    2271    2274       7    2268    2265    2262    2334       7
    2265    2271    2274    2277       7    2265    2262    2334    2337      11
    2265    2262    2334    2283      32    2265    2262   -2334    2283      33
    2265    2262   -2256    2274      20    2265    2262   -2256    2274      21
    2265    2262   -2256    2274      22    2262    2265   -2271    2274      20
    2262    2265   -2271    2274      21    2262    2265   -2271    2274      22
    2262    2334    2283    2286      34    2262    2334   -2283    2286       3
    2262    2256   -2274    2271      20    2262    2256   -2274    2271      21
    2262    2256   -2274    2271      22    2262    2256    2274    2277       7
    2262    2256   -2253    2283      32    2262    2256   -2253    2283      33
    2256    2274   -2271    2265      20    2256    2274   -2271    2265      21
    2256    2274   -2271    2265      22    2256    2274    2277    2433       3
    2256    2262    2265    2268       7    2256    2262   -2265    2271      20
    2256    2262   -2265    2271      21    2256    2262   -2265    2271      22
    2256    2262    2334    2337      11    2256    2262   -2334    2283      32
    2256    2262   -2334    2283      33    2256    2253   -2283    2334      28
    2256    2253    2283    2286      34    2256    2253   -2283    2286       3
    2253    2256    2274    2271       7    2253    2256    2274    2277       7
    2253    2256    2262    2265       7    2253    2256   -2262    2334       7
    2253    2283   -2334    2262      28    2253    2283    2334    2337      28
    2253    2283    2286    2289      24    2253    2283   -2286    2289      25
    2253    2283   -2286    2289      26    2250    2253    2256    2274      11
    2250    2253    2256    2262      11    2250    2253    2283    2334      28
    2250    2253    2283    2286      28    2490    2487    2493    2496      15
    2490    2487   -2493    2496      16    2484    2487    2493    2496      15
    2484    2487   -2493    2496      16    2481    2478    2475    2484      15
    2481    2478   -2475    2484      16    2478    2475    2484    2487      18
    2478    2475   -2484    2487      19    2475    2484    2487    2490      17
    2475    2484    2487    2493      18    2475    2484   -2487    2493      19
    2475    2469   -2466    2493      20    2475    2469   -2466    2493      21
    2475    2469   -2466    2493      22    2472    2469    2466    2493       7
    2472    2469    2475    2484      15    2472    2469   -2475    2484      16
    2472    2469    2475    2478       7    2469    2466    2493    2496       7
    2469    2466    2493    2487      20    2469    2466   -2493    2487      21
    2469    2466   -2493    2487      22    2469    2475   -2484    2487      18
    2469    2475   -2484    2487      19    2469    2475    2478    2481       7
    2466    2493    2487    2490       7    2466    2493    2487    2484       7
    2466    2469   -2475    2484       7    2466    2469    2475    2478      20
    2466    2469   -2475    2478      21    2466    2469   -2475    2478      22
    2463    2466    2493    2496      15    2463    2466   -2493    2496      16
    2463    2466    2493    2487       7    2463    2466    2469    2475       7
    2463    2466    2469    2472      15    2463    2466   -2469    2472      16
    2460    2463    2466    2493      18    2460    2463   -2466    2493      19
    2460    2463    2466    2469      18    2460    2463   -2466    2469      19
    2457    2460    2463    2466      18    2457    2460   -2463    2466      19
    2454    2457    2460    2463       7    2454    2451    2448    2499      24
    2454    2451   -2448    2499      25    2454    2451   -2448    2499      26
    2451    2454    2457    2460      27    2451    2448    2499    2502      28
    2448    2451    2454    2457      29    2442    2598    2595    2601       3
    2442    2598    2595    2592       3    2439    2442    2598    2595       2
    2439    2421    2427    2499       7    2439    2421    2418    2448      32
    2439    2421   -2418    2448      33    2436    2430    2427    2499       7
    2436    2439    2442    2598       3    2433    2430    2436    2439       7
    2433    2430    2427    2499       7    2430    2436    2439    2442       7
    2430    2427    2499    2502      11    2430    2427    2499    2448      32
    2430    2427   -2499    2448      33    2430    2427   -2421    2439      20
    2430    2427   -2421    2439      21    2430    2427   -2421    2439      22
    2427    2430   -2436    2439      20    2427    2430   -2436    2439      21
    2427    2430   -2436    2439      22    2427    2499    2448    2451      34
    2427    2499   -2448    2451       3    2427    2421   -2439    2436      20
    2427    2421   -2439    2436      21    2427    2421   -2439    2436      22
    2427    2421    2439    2442       7    2427    2421   -2418    2448      32
    2427    2421   -2418    2448      33    2421    2439   -2436    2430      20
    2421    2439   -2436    2430      21    2421    2439   -2436    2430      22
    2421    2439    2442    2598       3    2421    2427    2430    2433       7
    2421    2427   -2430    2436      20    2421    2427   -2430    2436      21
    2421    2427   -2430    2436      22    2421    2427    2499    2502      11
    2421    2427   -2499    2448      32    2421    2427   -2499    2448      33
    2421    2418   -2448    2499      28    2421    2418    2448    2451      34
    2421    2418   -2448    2451       3    2418    2421    2439    2436       7
    2418    2421    2439    2442       7    2418    2421    2427    2430       7
    2418    2421   -2427    2499       7    2418    2448   -2499    2427      28
    2418    2448    2499    2502      28    2418    2448    2451    2454      24
    2418    2448   -2451    2454      25    2418    2448   -2451    2454      26
    2415    2418    2421    2439      11    2415    2418    2421    2427      11
    2415    2418    2448    2499      28    2415    2418    2448    2451      28
    2655    2652    2658    2661      15    2655    2652   -2658    2661      16
    2649    2652    2658    2661      15    2649    2652   -2658    2661      16
    2646    2643    2640    2649      15    2646    2643   -2640    2649      16
    2643    2640    2649    2652      18    2643    2640   -2649    2652      19
    2640    2649    2652    2655      17    2640    2649    2652    2658      18
    2640    2649   -2652    2658      19    2640    2634   -2631    2658      20
    2640    2634   -2631    2658      21    2640    2634   -2631    2658      22
    2637    2634    2631    2658       7    2637    2634    2640    2649      15
    2637    2634   -2640    2649      16    2637    2634    2640    2643       7
    2634    2631    2658    2661       7    2634    2631    2658    2652      20
    2634    2631   -2658    2652      21    2634    2631   -2658    2652      22
    2634    2640   -2649    2652      18    2634    2640   -2649    2652      19
    2634    2640    2643    2646       7    2631    2658    2652    2655       7
    2631    2658    2652    2649       7    2631    2634   -2640    2649       7
    2631    2634    2640    2643      20    2631    2634   -2640    2643      21
    2631    2634   -2640    2643      22    2628    2631    2658    2661      15
    2628    2631   -2658    2661      16    2628    2631    2658    2652       7
    2628    2631    2634    2640       7    2628    2631    2634    2637      15
    2628    2631   -2634    2637      16    2625    2628    2631    2658      18
    2625    2628   -2631    2658      19    2625    2628    2631    2634      18
    2625    2628   -2631    2634      19    2622    2625    2628    2631      18
    2622    2625   -2628    2631      19    2619    2622    2625    2628       7
    2619    2616    2613    2664      24    2619    2616   -2613    2664      25
    2619    2616   -2613    2664      26    2616    2619    2622    2625      27
    2616    2613    2664    2667      28    2613    2616    2619    2622      29
    2607    2763    2760    2766       3    2607    2763    2760    2757       3
    2604    2607    2763    2760       2    2604    2586    2592    2664       7
    2604    2586    2583    2613      32    2604    2586   -2583    2613      33
    2601    2595    2592    2664       7    2601    2604    2607    2763       3
    2598    2595    2601    2604       7    2598    2595    2592    2664       7
    2595    2601    2604    2607       7    2595    2592    2664    2667      11
    2595    2592    2664    2613      32    2595    2592   -2664    2613      33
    2595    2592   -2586    2604      20    2595    2592   -2586    2604      21
    2595    2592   -2586    2604      22    2592    2595   -2601    2604      20
    2592    2595   -2601    2604      21    2592    2595   -2601    2604      22
    2592    2664    2613    2616      34    2592    2664   -2613    2616       3
    2592    2586   -2604    2601      20    2592    2586   -2604    2601      21
    2592    2586   -2604    2601      22    2592    2586    2604    2607       7
    2592    2586   -2583    2613      32    2592    2586   -2583    2613      33
    2586    2604   -2601    2595      20    2586    2604   -2601    2595      21
    2586    2604   -2601    2595      22    2586    2604    2607    2763       3
    2586    2592    2595    2598       7    2586    2592   -2595    2601      20
    2586    2592   -2595    2601      21    2586    2592   -2595    2601      22
    2586    2592    2664    2667      11    2586    2592   -2664    2613      32
    2586    2592   -2664    2613      33    2586    2583   -2613    2664      28
    2586    2583    2613    2616      34    2586    2583   -2613    2616       3
    2583    2586    2604    2601       7    2583    2586    2604    2607       7
    2583    2586    2592    2595       7    2583    2586   -2592    2664       7
    2583    2613   -2664    2592      28    2583    2613    2664    2667      28
    2583    2613    2616    2619      24    2583    2613   -2616    2619      25
    2583    2613   -2616    2619      26    2580    2583    2586    2604      11
    2580    2583    2586    2592      11    2580    2583    2613    2664      28
    2580    2583    2613    2616      28    2820    2817    2823    2826      15
    2820    2817   -2823    2826      16    2814    2817    2823    2826      15
    2814    2817   -2823    2826      16    2811    2808    2805    2814      15
    2811    2808   -2805    2814      16    2808    2805    2814    2817      18
    2808    2805   -2814    2817      19    2805    2814    2817    2820      17
    2805    2814    2817    2823      18    2805    2814   -2817    2823      19
    2805    2799   -2796    2823      20    2805    2799   -2796    2823      21
    2805    2799   -2796    2823      22    2802    2799    2796    2823       7
    2802    2799    2805    2814      15    2802    2799   -2805    2814      16
    2802    2799    2805    2808       7    2799    2796    2823    2826       7
    2799    2796    2823    2817      20    2799    2796   -2823    2817      21
    2799    2796   -2823    2817      22    2799    2805   -2814    2817      18
    2799    2805   -2814    2817      19    2799    2805    2808    2811       7
    2796    2823    2817    2820       7    2796    2823    2817    2814       7
    2796    2799   -2805    2814       7    2796    2799    2805    2808      20
    2796    2799   -2805    2808      21    2796    2799   -2805    2808      22
    2793    2796    2823    2826      15    2793    2796   -2823    2826      16
    2793    2796    2823    2817       7    2793    2796    2799    2805       7
    2793    2796    2799    2802      15    2793    2796   -2799    2802      16
    2790    2793    2796    2823      18    2790    2793   -2796    2823      19
    2790    2793    2796    2799      18    2790    2793   -2796    2799      19
    2787    2790    2793    2796      18    2787    2790   -2793    2796      19
    2784    2787    2790    2793       7    2784    2781    2778    2829      24
    2784    2781   -2778    2829      25    2784    2781   -2778    2829      26
    2781    2784    2787    2790      27    2781    2778    2829    2832      28
    2778    2781    2784    2787      29    2772    2928    2925    2931       3
    2772    2928    2925    2922       3    2769    2772    2928    2925       2
    2769    2751    2757    2829       7    2769    2751    2748    2778      32
    2769    2751   -2748    2778      33    2766    2760    2757    2829       7
    2766    2769    2772    2928       3    2763    2760    2766    2769       7
    2763    2760    2757    2829       7    2760    2766    2769    2772       7
    2760    2757    2829    2832      11    2760    2757    2829    2778      32
    2760    2757   -2829    2778      33    2760    2757   -2751    2769      20
    2760    2757   -2751    2769      21    2760    2757   -2751    2769      22
    2757    2760   -2766    2769      20    2757    2760   -2766    2769      21
    2757    2760   -2766    2769      22    2757    2829    2778    2781      34
    2757    2829   -2778    2781       3    2757    2751   -2769    2766      20
    2757    2751   -2769    2766      21    2757    2751   -2769    2766      22
    2757    2751    2769    2772       7    2757    2751   -2748    2778      32
    2757    2751   -2748    2778      33    2751    2769   -2766    2760      20
    2751    2769   -2766    2760      21    2751    2769   -2766    2760      22
    2751    2769    2772    2928       3    2751    2757    2760    2763       7
    2751    2757   -2760    2766      20    2751    2757   -2760    2766      21
    2751    2757   -2760    2766      22    2751    2757    2829    2832      11
    2751    2757   -2829    2778      32    2751    2757   -2829    2778      33
    2751    2748   -2778    2829      28    2751    2748    2778    2781      34
    2751    2748   -2778    2781       3    2748    2751    2769    2766       7
    2748    2751    2769    2772       7    2748    2751    2757    2760       7
    2748    2751   -2757    2829       7    2748    2778   -2829    2757      28
    2748    2778    2829    2832      28    2748    2778    2781    2784      24
    2748    2778   -2781    2784      25    2748    2778   -2781    2784      26
    2745    2748    2751    2769      11    2745    2748    2751    2757      11
    2745    2748    2778    2829      28    2745    2748    2778    2781      28
    2985    2982    2988    2991      15    2985    2982   -2988    2991      16
    2979    2982    2988    2991      15    2979    2982   -2988    2991      16
    2976    2973    2970    2979      15    2976    2973   -2970    2979      16
    2973    2970    2979    2982      18    2973    2970   -2979    2982      19
    2970    2979    2982    2985      17    2970    2979    2982    2988      18
    2970    2979   -2982    2988      19    2970    2964   -2961    2988      20
    2970    2964   -2961    2988      21    2970    2964   -2961    2988      22
    2967    2964    2961    2988       7    2967    2964    2970    2979      15
    2967    2964   -2970    2979      16    2967    2964    2970    2973       7
    2964    2961    2988    2991       7    2964    2961    2988    2982      20
    2964    2961   -2988    2982      21    2964    2961   -2988    2982      22
    2964    2970   -2979    2982      18    2964    2970   -2979    2982      19
    2964    2970    2973    2976       7    2961    2988    2982    2985       7
    2961    2988    2982    2979       7    2961    2964   -2970    2979       7
    2961    2964    2970    2973      20    2961    2964   -2970    2973      21
    2961    2964   -2970    2973      22    2958    2961    2988    2991      15
    2958    2961   -2988    2991      16    2958    2961    2988    2982       7
    2958    2961    2964    2970       7    2958    2961    2964    2967      15
    2958    2961   -2964    2967      16    2955    2958    2961    2988      18
    2955    2958   -2961    2988      19    2955    2958    2961    2964      18
    2955    2958   -2961    2964      19    2952    2955    2958    2961      18
    2952    2955   -2958    2961      19    2949    2952    2955    2958       7
    2949    2946    2943    2994      24    2949    2946   -2943    2994      25
    2949    2946   -2943    2994      26    2946    2949    2952    2955      27
    2946    2943    2994    2997      28    2943    2946    2949    2952      29
    2937    3093    3090    3096       3    2937    3093    3090    3087       3
    2934    2937    3093    3090       2    2934    2916    2922    2994       7
    2934    2916    2913    2943      32    2934    2916   -2913    2943      33
    2931    2925    2922    2994       7    2931    2934    2937    3093       3
    2928    2925    2931    2934       7    2928    2925    2922    2994       7
    2925    2931    2934    2937       7    2925    2922    2994    2997      11
    2925    2922    2994    2943      32    2925    2922   -2994    2943      33
    2925    2922   -2916    2934      20    2925    2922   -2916    2934      21
    2925    2922   -2916    2934      22    2922    2925   -2931    2934      20
    2922    2925   -2931    2934      21    2922    2925   -2931    2934      22
    2922    2994    2943    2946      34    2922    2994   -2943    2946       3
    2922    2916   -2934    2931      20    2922    2916   -2934    2931      21
    2922    2916   -2934    2931      22    2922    2916    2934    2937       7
    2922    2916   -2913    2943      32    2922    2916   -2913    2943      33
    2916    2934   -2931    2925      20    2916    2934   -2931    2925      21
    2916    2934   -2931    2925      22    2916    2934    2937    3093       3
    2916    2922    2925    2928       7    2916    2922   -2925    2931      20
    2916    2922   -2925    2931      21    2916    2922   -2925    2931      22
    2916    2922    2994    2997      11    2916    2922   -2994    2943      32
    2916    2922   -2994    2943      33    2916    2913   -2943    2994      28
    2916    2913    2943    2946      34    2916    2913   -2943    2946       3
    2913    2916    2934    2931       7    2913    2916    2934    2937       7
    2913    2916    2922    2925       7    2913    2916   -2922    2994       7
    2913    2943   -2994    2922      28    2913    2943    2994    2997      28
    2913    2943    2946    2949      24    2913    2943   -2946    2949      25
    2913    2943   -2946    2949      26    2910    2913    2916    2934      11
    2910    2913    2916    2922      11    2910    2913    2943    2994      28
    2910    2913    2943    2946      28    3150    3147    3153    3156      15
    3150    3147   -3153    3156      16    3144    3147    3153    3156      15
    3144    3147   -3153    3156      16    3141    3138    3135    3144      15
    3141    3138   -3135    3144      16    3138    3135    3144    3147      18
    3138    3135   -3144    3147      19    3135    3144    3147    3150      17
    3135    3144    3147    3153      18    3135    3144   -3147    3153      19
    3135    3129   -3126    3153      20    3135    3129   -3126    3153      21
    3135    3129   -3126    3153      22    3132    3129    3126    3153       7
    3132    3129    3135    3144      15    3132    3129   -3135    3144      16
    3132    3129    3135    3138       7    3129    3126    3153    3156       7
    3129    3126    3153    3147      20    3129    3126   -3153    3147      21
    3129    3126   -3153    3147      22    3129    3135   -3144    3147      18
    3129    3135   -3144    3147      19    3129    3135    3138    3141       7
    3126    3153    3147    3150       7    3126    3153    3147    3144       7
    3126    3129   -3135    3144       7    3126    3129    3135    3138      20
    3126    3129   -3135    3138      21    3126    3129   -3135    3138      22
    3123    3126    3153    3156      15    3123    3126   -3153    3156      16
    3123    3126    3153    3147       7    3123    3126    3129    3135       7
    3123    3126    3129    3132      15    3123    3126   -3129    3132      16
    3120    3123    3126    3153      18    3120    3123   -3126    3153      19
    3120    3123    3126    3129      18    3120    3123   -3126    3129      19
    3117    3120    3123    3126      18    3117    3120   -3123    3126      19
    3114    3117    3120    3123       7    3114    3111    3108    3159      24
    3114    3111   -3108    3159      25    3114    3111   -3108    3159      26
    3111    3114    3117    3120      27    3111    3108    3159    3162      28
    3108    3111    3114    3117      29    3102    3258    3255    3261       3
    3102    3258    3255    3252       3    3099    3102    3258    3255       2
    3099    3081    3087    3159       7    3099    3081    3078    3108      32
    3099    3081   -3078    3108      33    3096    3090    3087    3159       7
    3096    3099    3102    3258       3    3093    3090    3096    3099       7
    3093    3090    3087    3159       7    3090    3096    3099    3102       7
    3090    3087    3159    3162      11    3090    3087    3159    3108      32
    3090    3087   -3159    3108      33    3090    3087   -3081    3099      20
    3090    3087   -3081    3099      21    3090    3087   -3081    3099      22
    3087    3090   -3096    3099      20    3087    3090   -3096    3099      21
    3087    3090   -3096    3099      22    3087    3159    3108    3111      34
    3087    3159   -3108    3111       3    3087    3081   -3099    3096      20
    3087    3081   -3099    3096      21    3087    3081   -3099    3096      22
    3087    3081    3099    3102       7    3087    3081   -3078    3108      32
    3087    3081   -3078    3108      33    3081    3099   -3096    3090      20
    3081    3099   -3096    3090      21    3081    3099   -3096    3090      22
    3081    3099    3102    3258       3    3081    3087    3090    3093       7
    3081    3087   -3090    3096      20    3081    3087   -3090    3096      21
    3081    3087   -3090    3096      22    3081    3087    3159    3162      11
    3081    3087   -3159    3108      32    3081    3087   -3159    3108      33
    3081    3078   -3108    3159      28    3081    3078    3108    3111      34
    3081    3078   -3108    3111       3    3078    3081    3099    3096       7
    3078    3081    3099    3102       7    3078    3081    3087    3090       7
    3078    3081   -3087    3159       7    3078    3108   -3159    3087      28
    3078    3108    3159    3162      28    3078    3108    3111    3114      24
    3078    3108   -3111    3114      25    3078    3108   -3111    3114      26
    3075    3078    3081    3099      11    3075    3078    3081    3087      11
    3075    3078    3108    3159      28    3075    3078    3108    3111      28
    3315    3312    3318    3321      15    3315    3312   -3318    3321      16
    3309    3312    3318    3321      15    3309    3312   -3318    3321      16
    3306    3303    3300    3309      15    3306    3303   -3300    3309      16
    3303    3300    3309    3312      18    3303    3300   -3309    3312      19
    3300    3309    3312    3315      17    3300    3309    3312    3318      18
    3300    3309   -3312    3318      19    3300    3294   -3291    3318      20
    3300    3294   -3291    3318      21    3300    3294   -3291    3318      22
    3297    3294    3291    3318       7    3297    3294    3300    3309      15
    3297    3294   -3300    3309      16    3297    3294    3300    3303       7
    3294    3291    3318    3321       7    3294    3291    3318    3312      20
    3294    3291   -3318    3312      21    3294    3291   -3318    3312      22
    3294    3300   -3309    3312      18    3294    3300   -3309    3312      19
    3294    3300    3303    3306       7    3291    3318    3312    3315       7
    3291    3318    3312    3309       7    3291    3294   -3300    3309       7
    3291    3294    3300    3303      20    3291    3294   -3300    3303      21
    3291    3294   -3300    3303      22    3288    3291    3318    3321      15
    3288    3291   -3318    3321      16    3288    3291    3318    3312       7
    3288    3291    3294    3300       7    3288    3291    3294    3297      15
    3288    3291   -3294    3297      16    3285    3288    3291    3318      18
    3285    3288   -3291    3318      19    3285    3288    3291    3294      18
    3285    3288   -3291    3294      19    3282    3285    3288    3291      18
    3282    3285   -3288    3291      19    3279    3282    3285    3288       7
    3279    3276    3273    3324      24    3279    3276   -3273    3324      25
    3279    3276   -3273    3324      26    3276    3279    3282    3285      27
    3276    3273    3324    3327      28    3273    3276    3279    3282      29
    3264    3246    3252    3324       7    3264    3246    3243    3273      32
    3264    3246   -3243    3273      33    3261    3255    3252    3324       7
    3261    3264    3267    3405       3    3258    3255    3261    3264       7
    3258    3255    3252    3324       7    3255    3261    3264    3267       7
    3255    3252    3324    3327      11    3255    3252    3324    3273      32
    3255    3252   -3324    3273      33    3255    3252   -3246    3264      20
    3255    3252   -3246    3264      21    3255    3252   -3246    3264      22
    3252    3255   -3261    3264      20    3252    3255   -3261    3264      21
    3252    3255   -3261    3264      22    3252    3324    3273    3276      34
    3252    3324   -3273    3276       3    3252    3246   -3264    3261      20
    3252    3246   -3264    3261      21    3252    3246   -3264    3261      22
    3252    3246    3264    3267       7    3252    3246   -3243    3273      32
    3252    3246   -3243    3273      33    3246    3264   -3261    3255      20
    3246    3264   -3261    3255      21    3246    3264   -3261    3255      22
    3246    3264    3267    3405       3    3246    3252    3255    3258       7
    3246    3252   -3255    3261      20    3246    3252   -3255    3261      21
    3246    3252   -3255    3261      22    3246    3252    3324    3327      11
    3246    3252   -3324    3273      32    3246    3252   -3324    3273      33
    3246    3243   -3273    3324      28    3246    3243    3273    3276      34
    3246    3243   -3273    3276       3    3243    3246    3264    3261       7
    3243    3246    3264    3267       7    3243    3246    3252    3255       7
    3243    3246   -3252    3324       7    3243    3273   -3324    3252      28
    3243    3273    3324    3327      28    3243    3273    3276    3279      24
    3243    3273   -3276    3279      25    3243    3273   -3276    3279      26
    3240    3243    3246    3264      11    3240    3243    3246    3252      11
    3240    3243    3273    3324      28    3240    3243    3273    3276      28
    3414    3441    3438    3444       3    3414    3441    3438    3435       3
    3498    3495    3501    3504      15    3498    3495   -3501    3504      16
    3492    3495    3501    3504      15    3492    3495   -3501    3504      16
    3489    3486    3483    3492      15    3489    3486   -3483    3492      16
    3486    3483    3492    3495      18    3486    3483   -3492    3495      19
    3483    3492    3495    3498      17    3483    3492    3495    3501      18
    3483    3492   -3495    3501      19    3483    3477   -3474    3501      20
    3483    3477   -3474    3501      21    3483    3477   -3474    3501      22
    3480    3477    3474    3501       7    3480    3477    3483    3492      15
    3480    3477   -3483    3492      16    3480    3477    3483    3486       7
    3477    3474    3501    3504       7    3477    3474    3501    3495      20
    3477    3474   -3501    3495      21    3477    3474   -3501    3495      22
    3477    3483   -3492    3495      18    3477    3483   -3492    3495      19
    3477    3483    3486    3489       7    3474    3501    3495    3498       7
    3474    3501    3495    3492       7    3474    3477   -3483    3492       7
    3474    3477    3483    3486      20    3474    3477   -3483    3486      21
    3474    3477   -3483    3486      22    3471    3474    3501    3504      15
    3471    3474   -3501    3504      16    3471    3474    3501    3495       7
    3471    3474    3477    3483       7    3471    3474    3477    3480      15
    3471    3474   -3477    3480      16    3468    3471    3474    3501      18
    3468    3471   -3474    3501      19    3468    3471    3474    3477      18
    3468    3471   -3474    3477      19    3465    3468    3471    3474      18
    3465    3468   -3471    3474      19    3462    3465    3468    3471       7
    3462    3459    3456    3507      24    3462    3459   -3456    3507      25
    3462    3459   -3456    3507      26    3459    3462    3465    3468      27
    3459    3456    3507    3510      28    3456    3459    3462    3465      29
    3450    3606    3603    3609       3    3450    3606    3603    3600       3
    3447    3450    3606    3603       2    3447    3429    3435    3507       7
    3447    3429    3426    3456      32    3447    3429   -3426    3456      33
    3444    3438    3435    3507       7    3444    3447    3450    3606       3
    3441    3438    3444    3447       7    3441    3438    3435    3507       7
    3438    3444    3447    3450       7    3438    3435    3507    3510      11
    3438    3435    3507    3456      32    3438    3435   -3507    3456      33
    3438    3435   -3429    3447      20    3438    3435   -3429    3447      21
    3438    3435   -3429    3447      22    3435    3438   -3444    3447      20
    3435    3438   -3444    3447      21    3435    3438   -3444    3447      22
    3435    3507    3456    3459      34    3435    3507   -3456    3459       3
    3435    3429   -3447    3444      20    3435    3429   -3447    3444      21
    3435    3429   -3447    3444      22    3435    3429    3447    3450       7
    3435    3429   -3426    3456      32    3435    3429   -3426    3456      33
    3429    3447   -3444    3438      20    3429    3447   -3444    3438      21
    3429    3447   -3444    3438      22    3429    3447    3450    3606       3
    3429    3435    3438    3441       7    3429    3435   -3438    3444      20
    3429    3435   -3438    3444      21    3429    3435   -3438    3444      22
    3429    3435    3507    3510      11    3429    3435   -3507    3456      32
    3429    3435   -3507    3456      33    3429    3426   -3456    3507      28
    3429    3426    3456    3459      34    3429    3426   -3456    3459       3
    3426    3429    3447    3444       7    3426    3429    3447    3450       7
    3426    3429    3435    3438       7    3426    3429   -3435    3507       7
    3426    3456   -3507    3435      28    3426    3456    3507    3510      28
    3426    3456    3459    3462      24    3426    3456   -3459    3462      25
    3426    3456   -3459    3462      26    3423    3426    3429    3447      11
    3423    3426    3429    3435      11    3423    3426    3456    3507      28
    3423    3426    3456    3459      28    3663    3660    3666    3669      15
    3663    3660   -3666    3669      16    3657    3660    3666    3669      15
    3657    3660   -3666    3669      16    3654    3651    3648    3657      15
    3654    3651   -3648    3657      16    3651    3648    3657    3660      18
    3651    3648   -3657    3660      19    3648    3657    3660    3663      17
    3648    3657    3660    3666      18    3648    3657   -3660    3666      19
    3648    3642   -3639    3666      20    3648    3642   -3639    3666      21
    3648    3642   -3639    3666      22    3645    3642    3639    3666       7
    3645    3642    3648    3657      15    3645    3642   -3648    3657      16
    3645    3642    3648    3651       7    3642    3639    3666    3669       7
    3642    3639    3666    3660      20    3642    3639   -3666    3660      21
    3642    3639   -3666    3660      22    3642    3648   -3657    3660      18
    3642    3648   -3657    3660      19    3642    3648    3651    3654       7
    3639    3666    3660    3663       7    3639    3666    3660    3657       7
    3639    3642   -3648    3657       7    3639    3642    3648    3651      20
    3639    3642   -3648    3651      21    3639    3642   -3648    3651      22
    3636    3639    3666    3669      15    3636    3639   -3666    3669      16
    3636    3639    3666    3660       7    3636    3639    3642    3648       7
    3636    3639    3642    3645      15    3636    3639   -3642    3645      16
    3633    3636    3639    3666      18    3633    3636   -3639    3666      19
    3633    3636    3639    3642      18    3633    3636   -3639    3642      19
    3630    3633    3636    3639      18    3630    3633   -3636    3639      19
    3627    3630    3633    3636       7    3627    3624    3621    3672      24
    3627    3624   -3621    3672      25    3627    3624   -3621    3672      26
    3624    3627    3630    3633      27    3624    3621    3672    3675      28
    3621    3624    3627    3630      29    3615    3771    3768    3774       3
    3615    3771    3768    3765       3    3612    3615    3771    3768       2
    3612    3594    3600    3672       7    3612    3594    3591    3621      32
    3612    3594   -3591    3621      33    3609    3603    3600    3672       7
    3609    3612    3615    3771       3    3606    3603    3609    3612       7
    3606    3603    3600    3672       7    3603    3609    3612    3615       7
    3603    3600    3672    3675      11    3603    3600    3672    3621      32
    3603    3600   -3672    3621      33    3603    3600   -3594    3612      20
    3603    3600   -3594    3612      21    3603    3600   -3594    3612      22
    3600    3603   -3609    3612      20    3600    3603   -3609    3612      21
    3600    3603   -3609    3612      22    3600    3672    3621    3624      34
    3600    3672   -3621    3624       3    3600    3594   -3612    3609      20
    3600    3594   -3612    3609      21    3600    3594   -3612    3609      22
    3600    3594    3612    3615       7    3600    3594   -3591    3621      32
    3600    3594   -3591    3621      33    3594    3612   -3609    3603      20
    3594    3612   -3609    3603      21    3594    3612   -3609    3603      22
    3594    3612    3615    3771       3    3594    3600    3603    3606       7
    3594    3600   -3603    3609      20    3594    3600   -3603    3609      21
    3594    3600   -3603    3609      22    3594    3600    3672    3675      11
    3594    3600   -3672    3621      32    3594    3600   -3672    3621      33
    3594    3591   -3621    3672      28    3594    3591    3621    3624      34
    3594    3591   -3621    3624       3    3591    3594    3612    3609       7
    3591    3594    3612    3615       7    3591    3594    3600    3603       7
    3591    3594   -3600    3672       7    3591    3621   -3672    3600      28
    3591    3621    3672    3675      28    3591    3621    3624    3627      24
    3591    3621   -3624    3627      25    3591    3621   -3624    3627      26
    3588    3591    3594    3612      11    3588    3591    3594    3600      11
    3588    3591    3621    3672      28    3588    3591    3621    3624      28
    3828    3825    3831    3834      15    3828    3825   -3831    3834      16
    3822    3825    3831    3834      15    3822    3825   -3831    3834      16
    3819    3816    3813    3822      15    3819    3816   -3813    3822      16
    3816    3813    3822    3825      18    3816    3813   -3822    3825      19
    3813    3822    3825    3828      17    3813    3822    3825    3831      18
    3813    3822   -3825    3831      19    3813    3807   -3804    3831      20
    3813    3807   -3804    3831      21    3813    3807   -3804    3831      22
    3810    3807    3804    3831       7    3810    3807    3813    3822      15
    3810    3807   -3813    3822      16    3810    3807    3813    3816       7
    3807    3804    3831    3834       7    3807    3804    3831    3825      20
    3807    3804   -3831    3825      21    3807    3804   -3831    3825      22
    3807    3813   -3822    3825      18    3807    3813   -3822    3825      19
    3807    3813    3816    3819       7    3804    3831    3825    3828       7
    3804    3831    3825    3822       7    3804    3807   -3813    3822       7
    3804    3807    3813    3816      20    3804    3807   -3813    3816      21
    3804    3807   -3813    3816      22    3801    3804    3831    3834      15
    3801    3804   -3831    3834      16    3801    3804    3831    3825       7
    3801    3804    3807    3813       7    3801    3804    3807    3810      15
    3801    3804   -3807    3810      16    3798    3801    3804    3831      18
    3798    3801   -3804    3831      19    3798    3801    3804    3807      18
    3798    3801   -3804    3807      19    3795    3798    3801    3804      18
    3795    3798   -3801    3804      19    3792    3795    3798    3801       7
    3792    3789    3786    3837      24    3792    3789   -3786    3837      25
    3792    3789   -3786    3837      26    3789    3792    3795    3798      27
    3789    3786    3837    3840      28    3786    3789    3792    3795      29
    3780    3936    3933    3939       3    3780    3936    3933    3930       3
    3777    3780    3936    3933       2    3777    3759    3765    3837       7
    3777    3759    3756    3786      32    3777    3759   -3756    3786      33
    3774    3768    3765    3837       7    3774    3777    3780    3936       3
    3771    3768    3774    3777       7    3771    3768    3765    3837       7
    3768    3774    3777    3780       7    3768    3765    3837    3840      11
    3768    3765    3837    3786      32    3768    3765   -3837    3786      33
    3768    3765   -3759    3777      20    3768    3765   -3759    3777      21
    3768    3765   -3759    3777      22    3765    3768   -3774    3777      20
    3765    3768   -3774    3777      21    3765    3768   -3774    3777      22
    3765    3837    3786    3789      34    3765    3837   -3786    3789       3
    3765    3759   -3777    3774      20    3765    3759   -3777    3774      21
    3765    3759   -3777    3774      22    3765    3759    3777    3780       7
    3765    3759   -3756    3786      32    3765    3759   -3756    3786      33
    3759    3777   -3774    3768      20    3759    3777   -3774    3768      21
    3759    3777   -3774    3768      22    3759    3777    3780    3936       3
    3759    3765    3768    3771       7    3759    3765   -3768    3774      20
    3759    3765   -3768    3774      21    3759    3765   -3768    3774      22
    3759    3765    3837    3840      11    3759    3765   -3837    3786      32
    3759    3765   -3837    3786      33    3759    3756   -3786    3837      28
    3759    3756    3786    3789      34    3759    3756   -3786    3789       3
    3756    3759    3777    3774       7    3756    3759    3777    3780       7
    3756    3759    3765    3768       7    3756    3759   -3765    3837       7
    3756    3786   -3837    3765      28    3756    3786    3837    3840      28
    3756    3786    3789    3792      24    3756    3786   -3789    3792      25
    3756    3786   -3789    3792      26    3753    3756    3759    3777      11
    3753    3756    3759    3765      11    3753    3756    3786    3837      28
    3753    3756    3786    3789      28    3993    3990    3996    3999      15
    3993    3990   -3996    3999      16    3987    3990    3996    3999      15
    3987    3990   -3996    3999      16    3984    3981    3978    3987      15
    3984    3981   -3978    3987      16    3981    3978    3987    3990      18
    3981    3978   -3987    3990      19    3978    3987    3990    3993      17
    3978    3987    3990    3996      18    3978    3987   -3990    3996      19
    3978    3972   -3969    3996      20    3978    3972   -3969    3996      21
    3978    3972   -3969    3996      22    3975    3972    3969    3996       7
    3975    3972    3978    3987      15    3975    3972   -3978    3987      16
    3975    3972    3978    3981       7    3972    3969    3996    3999       7
    3972    3969    3996    3990      20    3972    3969   -3996    3990      21
    3972    3969   -3996    3990      22    3972    3978   -3987    3990      18
    3972    3978   -3987    3990      19    3972    3978    3981    3984       7
    3969    3996    3990    3993       7    3969    3996    3990    3987       7
    3969    3972   -3978    3987       7    3969    3972    3978    3981      20
    3969    3972   -3978    3981      21    3969    3972   -3978    3981      22
    3966    3969    3996    3999      15    3966    3969   -3996    3999      16
    3966    3969    3996    3990       7    3966    3969    3972    3978       7
    3966    3969    3972    3975      15    3966    3969   -3972    3975      16
    3963    3966    3969    3996      18    3963    3966   -3969    3996      19
    3963    3966    3969    3972      18    3963    3966   -3969    3972      19
    3960    3963    3966    3969      18    3960    3963   -3966    3969      19
    3957    3960    3963    3966       7    3957    3954    3951    4002      24
    3957    3954   -3951    4002      25    3957    3954   -3951    4002      26
    3954    3957    3960    3963      27    3954    3951    4002    4005      28
    3951    3954    3957    3960      29    3945    4101    4098    4104       3
    3945    4101    4098    4095       3    3942    3945    4101    4098       2
    3942    3924    3930    4002       7    3942    3924    3921    3951      32
    3942    3924   -3921    3951      33    3939    3933    3930    4002       7
    3939    3942    3945    4101       3    3936    3933    3939    3942       7
    3936    3933    3930    4002       7    3933    3939    3942    3945       7
    3933    3930    4002    4005      11    3933    3930    4002    3951      32
    3933    3930   -4002    3951      33    3933    3930   -3924    3942      20
    3933    3930   -3924    3942      21    3933    3930   -3924    3942      22
    3930    3933   -3939    3942      20    3930    3933   -3939    3942      21
    3930    3933   -3939    3942      22    3930    4002    3951    3954      34
    3930    4002   -3951    3954       3    3930    3924   -3942    3939      20
    3930    3924   -3942    3939      21    3930    3924   -3942    3939      22
    3930    3924    3942    3945       7    3930    3924   -3921    3951      32
    3930    3924   -3921    3951      33    3924    3942   -3939    3933      20
    3924    3942   -3939    3933      21    3924    3942   -3939    3933      22
    3924    3942    3945    4101       3    3924    3930    3933    3936       7
    3924    3930   -3933    3939      20    3924    3930   -3933    3939      21
    3924    3930   -3933    3939      22    3924    3930    4002    4005      11
    3924    3930   -4002    3951      32    3924    3930   -4002    3951      33
    3924    3921   -3951    4002      28    3924    3921    3951    3954      34
    3924    3921   -3951    3954       3    3921    3924    3942    3939       7
    3921    3924    3942    3945       7    3921    3924    3930    3933       7
    3921    3924   -3930    4002       7    3921    3951   -4002    3930      28
    3921    3951    4002    4005      28    3921    3951    3954    3957      24
    3921    3951   -3954    3957      25    3921    3951   -3954    3957      26
    3918    3921    3924    3942      11    3918    3921    3924    3930      11
    3918    3921    3951    4002      28    3918    3921    3951    3954      28
    4158    4155    4161    4164      15    4158    4155   -4161    4164      16
    4152    4155    4161    4164      15    4152    4155   -4161    4164      16
    4149    4146    4143    4152      15    4149    4146   -4143    4152      16
    4146    4143    4152    4155      18    4146    4143   -4152    4155      19
    4143    4152    4155    4158      17    4143    4152    4155    4161      18
    4143    4152   -4155    4161      19    4143    4137   -4134    4161      20
    4143    4137   -4134    4161      21    4143    4137   -4134    4161      22
    4140    4137    4134    4161       7    4140    4137    4143    4152      15
    4140    4137   -4143    4152      16    4140    4137    4143    4146       7
    4137    4134    4161    4164       7    4137    4134    4161    4155      20
    4137    4134   -4161    4155      21    4137    4134   -4161    4155      22
    4137    4143   -4152    4155      18    4137    4143   -4152    4155      19
    4137    4143    4146    4149       7    4134    4161    4155    4158       7
    4134    4161    4155    4152       7    4134    4137   -4143    4152       7
    4134    4137    4143    4146      20    4134    4137   -4143    4146      21
    4134    4137   -4143    4146      22    4131    4134    4161    4164      15
    4131    4134   -4161    4164      16    4131    4134    4161    4155       7
    4131    4134    4137    4143       7    4131    4134    4137    4140      15
    4131    4134   -4137    4140      16    4128    4131    4134    4161      18
    4128    4131   -4134    4161      19    4128    4131    4134    4137      18
    4128    4131   -4134    4137      19    4125    4128    4131    4134      18
    4125    4128   -4131    4134      19    4122    4125    4128    4131       7
    4122    4119    4116    4167      24    4122    4119   -4116    4167      25
    4122    4119   -4116    4167      26    4119    4122    4125    4128      27
    4119    4116    4167    4170      28    4116    4119    4122    4125      29
    4110    4266    4263    4269       3    4110    4266    4263    4260       3
    4107    4110    4266    4263       2    4107    4089    4095    4167       7
    4107    4089    4086    4116      32    4107    4089   -4086    4116      33
    4104    4098    4095    4167       7    4104    4107    4110    4266       3
    4101    4098    4104    4107       7    4101    4098    4095    4167       7
    4098    4104    4107    4110       7    4098    4095    4167    4170      11
    4098    4095    4167    4116      32    4098    4095   -4167    4116      33
    4098    4095   -4089    4107      20    4098    4095   -4089    4107      21
    4098    4095   -4089    4107      22    4095    4098   -4104    4107      20
    4095    4098   -4104    4107      21    4095    4098   -4104    4107      22
    4095    4167    4116    4119      34    4095    4167   -4116    4119       3
    4095    4089   -4107    4104      20    4095    4089   -4107    4104      21
    4095    4089   -4107    4104      22    4095    4089    4107    4110       7
    4095    4089   -4086    4116      32    4095    4089   -4086    4116      33
    4089    4107   -4104    4098      20    4089    4107   -4104    4098      21
    4089    4107   -4104    4098      22    4089    4107    4110    4266       3
    4089    4095    4098    4101       7    4089    4095   -4098    4104      20
    4089    4095   -4098    4104      21    4089    4095   -4098    4104      22
    4089    4095    4167    4170      11    4089    4095   -4167    4116      32
    4089    4095   -4167    4116      33    4089    4086   -4116    4167      28
    4089    4086    4116    4119      34    4089    4086   -4116    4119       3
    4086    4089    4107    4104       7    4086    4089    4107    4110       7
    4086    4089    4095    4098       7    4086    4089   -4095    4167       7
    4086    4116   -4167    4095      28    4086    4116    4167    4170      28
    4086    4116    4119    4122      24    4086    4116   -4119    4122      25
    4086    4116   -4119    4122      26    4083    4086    4089    4107      11
    4083    4086    4089    4095      11    4083    4086    4116    4167      28
    4083    4086    4116    4119      28    4323    4320    4326    4329      15
    4323    4320   -4326    4329      16    4317    4320    4326    4329      15
    4317    4320   -4326    4329      16    4314    4311    4308    4317      15
    4314    4311   -4308    4317      16    4311    4308    4317    4320      18
    4311    4308   -4317    4320      19    4308    4317    4320    4323      17
    4308    4317    4320    4326      18    4308    4317   -4320    4326      19
    4308    4302   -4299    4326      20    4308    4302   -4299    4326      21
    4308    4302   -4299    4326      22    4305    4302    4299    4326       7
    4305    4302    4308    4317      15    4305    4302   -4308    4317      16
    4305    4302    4308    4311       7    4302    4299    4326    4329       7
    4302    4299    4326    4320      20    4302    4299   -4326    4320      21
    4302    4299   -4326    4320      22    4302    4308   -4317    4320      18
    4302    4308   -4317    4320      19    4302    4308    4311    4314       7
    4299    4326    4320    4323       7    4299    4326    4320    4317       7
    4299    4302   -4308    4317       7    4299    4302    4308    4311      20
    4299    4302   -4308    4311      21    4299    4302   -4308    4311      22
    4296    4299    4326    4329      15    4296    4299   -4326    4329      16
    4296    4299    4326    4320       7    4296    4299    4302    4308       7
    4296    4299    4302    4305      15    4296    4299   -4302    4305      16
    4293    4296    4299    4326      18    4293    4296   -4299    4326      19
    4293    4296    4299    4302      18    4293    4296   -4299    4302      19
    4290    4293    4296    4299      18    4290    4293   -4296    4299      19
    4287    4290    4293    4296       7    4287    4284    4281    4332      24
    4287    4284   -4281    4332      25    4287    4284   -4281    4332      26
    4284    4287    4290    4293      27    4284    4281    4332    4335      28
    4281    4284    4287    4290      29    4275    4431    4428    4434       3
    4275    4431    4428    4425       3    4272    4275    4431    4428       2
    4272    4254    4260    4332       7    4272    4254    4251    4281      32
    4272    4254   -4251    4281      33    4269    4263    4260    4332       7
    4269    4272    4275    4431       3    4266    4263    4269    4272       7
    4266    4263    4260    4332       7    4263    4269    4272    4275       7
    4263    4260    4332    4335      11    4263    4260    4332    4281      32
    4263    4260   -4332    4281      33    4263    4260   -4254    4272      20
    4263    4260   -4254    4272      21    4263    4260   -4254    4272      22
    4260    4263   -4269    4272      20    4260    4263   -4269    4272      21
    4260    4263   -4269    4272      22    4260    4332    4281    4284      34
    4260    4332   -4281    4284       3    4260    4254   -4272    4269      20
    4260    4254   -4272    4269      21    4260    4254   -4272    4269      22
    4260    4254    4272    4275       7    4260    4254   -4251    4281      32
    4260    4254   -4251    4281      33    4254    4272   -4269    4263      20
    4254    4272   -4269    4263      21    4254    4272   -4269    4263      22
    4254    4272    4275    4431       3    4254    4260    4263    4266       7
    4254    4260   -4263    4269      20    4254    4260   -4263    4269      21
    4254    4260   -4263    4269      22    4254    4260    4332    4335      11
    4254    4260   -4332    4281      32    4254    4260   -4332    4281      33
    4254    4251   -4281    4332      28    4254    4251    4281    4284      34
    4254    4251   -4281    4284       3    4251    4254    4272    4269       7
    4251    4254    4272    4275       7    4251    4254    4260    4263       7
    4251    4254   -4260    4332       7    4251    4281   -4332    4260      28
    4251    4281    4332    4335      28    4251    4281    4284    4287      24
    4251    4281   -4284    4287      25    4251    4281   -4284    4287      26
    4248    4251    4254    4272      11    4248    4251    4254    4260      11
    4248    4251    4281    4332      28    4248    4251    4281    4284      28
    4488    4485    4491    4494      15    4488    4485   -4491    4494      16
    4482    4485    4491    4494      15    4482    4485   -4491    4494      16
    4479    4476    4473    4482      15    4479    4476   -4473    4482      16
    4476    4473    4482    4485      18    4476    4473   -4482    4485      19
    4473    4482    4485    4488      17    4473    4482    4485    4491      18
    4473    4482   -4485    4491      19    4473    4467   -4464    4491      20
    4473    4467   -4464    4491      21    4473    4467   -4464    4491      22
    4470    4467    4464    4491       7    4470    4467    4473    4482      15
    4470    4467   -4473    4482      16    4470    4467    4473    4476       7
    4467    4464    4491    4494       7    4467    4464    4491    4485      20
    4467    4464   -4491    4485      21    4467    4464   -4491    4485      22
    4467    4473   -4482    4485      18    4467    4473   -4482    4485      19
    4467    4473    4476    4479       7    4464    4491    4485    4488       7
    4464    4491    4485    4482       7    4464    4467   -4473    4482       7
    4464    4467    4473    4476      20    4464    4467   -4473    4476      21
    4464    4467   -4473    4476      22    4461    4464    4491    4494      15
    4461    4464   -4491    4494      16    4461    4464    4491    4485       7
    4461    4464    4467    4473       7    4461    4464    4467    4470      15
    4461    4464   -4467    4470      16    4458    4461    4464    4491      18
    4458    4461   -4464    4491      19    4458    4461    4464    4467      18
    4458    4461   -4464    4467      19    4455    4458    4461    4464      18
    4455    4458   -4461    4464      19    4452    4455    4458    4461       7
    4452    4449    4446    4497      24    4452    4449   -4446    4497      25
    4452    4449   -4446    4497      26    4449    4452    4455    4458      27
    4449    4446    4497    4500      28    4446    4449    4452    4455      29
    4440    4596    4593    4599       3    4440    4596    4593    4590       3
    4437    4440    4596    4593       2    4437    4419    4425    4497       7
    4437    4419    4416    4446      32    4437    4419   -4416    4446      33
    4434    4428    4425    4497       7    4434    4437    4440    4596       3
    4431    4428    4434    4437       7    4431    4428    4425    4497       7
    4428    4434    4437    4440       7    4428    4425    4497    4500      11
    4428    4425    4497    4446      32    4428    4425   -4497    4446      33
    4428    4425   -4419    4437      20    4428    4425   -4419    4437      21
    4428    4425   -4419    4437      22    4425    4428   -4434    4437      20
    4425    4428   -4434    4437      21    4425    4428   -4434    4437      22
    4425    4497    4446    4449      34    4425    4497   -4446    4449       3
    4425    4419   -4437    4434      20    4425    4419   -4437    4434      21
    4425    4419   -4437    4434      22    4425    4419    4437    4440       7
    4425    4419   -4416    4446      32    4425    4419   -4416    4446      33
    4419    4437   -4434    4428      20    4419    4437   -4434    4428      21
    4419    4437   -4434    4428      22    4419    4437    4440    4596       3
    4419    4425    4428    4431       7    4419    4425   -4428    4434      20
    4419    4425   -4428    4434      21    4419    4425   -4428    4434      22
    4419    4425    4497    4500      11    4419    4425   -4497    4446      32
    4419    4425   -4497    4446      33    4419    4416   -4446    4497      28
    4419    4416    4446    4449      34    4419    4416   -4446    4449       3
    4416    4419    4437    4434       7    4416    4419    4437    4440       7
    4416    4419    4425    4428       7    4416    4419   -4425    4497       7
    4416    4446   -4497    4425      28    4416    4446    4497    4500      28
    4416    4446    4449    4452      24    4416    4446   -4449    4452      25
    4416    4446   -4449    4452      26    4413    4416    4419    4437      11
    4413    4416    4419    4425      11    4413    4416    4446    4497      28
    4413    4416    4446    4449      28    4653    4650    4656    4659      15
    4653    4650   -4656    4659      16    4647    4650    4656    4659      15
    4647    4650   -4656    4659      16    4644    4641    4638    4647      15
    4644    4641   -4638    4647      16    4641    4638    4647    4650      18
    4641    4638   -4647    4650      19    4638    4647    4650    4653      17
    4638    4647    4650    4656      18    4638    4647   -4650    4656      19
    4638    4632   -4629    4656      20    4638    4632   -4629    4656      21
    4638    4632   -4629    4656      22    4635    4632    4629    4656       7
    4635    4632    4638    4647      15    4635    4632   -4638    4647      16
    4635    4632    4638    4641       7    4632    4629    4656    4659       7
    4632    4629    4656    4650      20    4632    4629   -4656    4650      21
    4632    4629   -4656    4650      22    4632    4638   -4647    4650      18
    4632    4638   -4647    4650      19    4632    4638    4641    4644       7
    4629    4656    4650    4653       7    4629    4656    4650    4647       7
    4629    4632   -4638    4647       7    4629    4632    4638    4641      20
    4629    4632   -4638    4641      21    4629    4632   -4638    4641      22
    4626    4629    4656    4659      15    4626    4629   -4656    4659      16
    4626    4629    4656    4650       7    4626    4629    4632    4638       7
    4626    4629    4632    4635      15    4626    4629   -4632    4635      16
    4623    4626    4629    4656      18    4623    4626   -4629    4656      19
    4623    4626    4629    4632      18    4623    4626   -4629    4632      19
    4620    4623    4626    4629      18    4620    4623   -4626    4629      19
    4617    4620    4623    4626       7    4617    4614    4611    4662      24
    4617    4614   -4611    4662      25    4617    4614   -4611    4662      26
    4614    4617    4620    4623      27    4614    4611    4662    4665      28
    4611    4614    4617    4620      29    4605    4761    4758    4764       3
    4605    4761    4758    4755       3    4602    4605    4761    4758       2
    4602    4584    4590    4662       7    4602    4584    4581    4611      32
    4602    4584   -4581    4611      33    4599    4593    4590    4662       7
    4599    4602    4605    4761       3    4596    4593    4599    4602       7
    4596    4593    4590    4662       7    4593    4599    4602    4605       7
    4593    4590    4662    4665      11    4593    4590    4662    4611      32
    4593    4590   -4662    4611      33    4593    4590   -4584    4602      20
    4593    4590   -4584    4602      21    4593    4590   -4584    4602      22
    4590    4593   -4599    4602      20    4590    4593   -4599    4602      21
    4590    4593   -4599    4602      22    4590    4662    4611    4614      34
    4590    4662   -4611    4614       3    4590    4584   -4602    4599      20
    4590    4584   -4602    4599      21    4590    4584   -4602    4599      22
    4590    4584    4602    4605       7    4590    4584   -4581    4611      32
    4590    4584   -4581    4611      33    4584    4602   -4599    4593      20
    4584    4602   -4599    4593      21    4584    4602   -4599    4593      22
    4584    4602    4605    4761       3    4584    4590    4593    4596       7
    4584    4590   -4593    4599      20    4584    4590   -4593    4599      21
    4584    4590   -4593    4599      22    4584    4590    4662    4665      11
    4584    4590   -4662    4611      32    4584    4590   -4662    4611      33
    4584    4581   -4611    4662      28    4584    4581    4611    4614      34
    4584    4581   -4611    4614       3    4581    4584    4602    4599       7
    4581    4584    4602    4605       7    4581    4584    4590    4593       7
    4581    4584   -4590    4662       7    4581    4611   -4662    4590      28
    4581    4611    4662    4665      28    4581    4611    4614    4617      24
    4581    4611   -4614    4617      25    4581    4611   -4614    4617      26
    4578    4581    4584    4602      11    4578    4581    4584    4590      11
    4578    4581    4611    4662      28    4578    4581    4611    4614      28
    4818    4815    4821    4824      15    4818    4815   -4821    4824      16
    4812    4815    4821    4824      15    4812    4815   -4821    4824      16
    4809    4806    4803    4812      15    4809    4806   -4803    4812      16
    4806    4803    4812    4815      18    4806    4803   -4812    4815      19
    4803    4812    4815    4818      17    4803    4812    4815    4821      18
    4803    4812   -4815    4821      19    4803    4797   -4794    4821      20
    4803    4797   -4794    4821      21    4803    4797   -4794    4821      22
    4800    4797    4794    4821       7    4800    4797    4803    4812      15
    4800    4797   -4803    4812      16    4800    4797    4803    4806       7
    4797    4794    4821    4824       7    4797    4794    4821    4815      20
    4797    4794   -4821    4815      21    4797    4794   -4821    4815      22
    4797    4803   -4812    4815      18    4797    4803   -4812    4815      19
    4797    4803    4806    4809       7    4794    4821    4815    4818       7
    4794    4821    4815    4812       7    4794    4797   -4803    4812       7
    4794    4797    4803    4806      20    4794    4797   -4803    4806      21
    4794    4797   -4803    4806      22    4791    4794    4821    4824      15
    4791    4794   -4821    4824      16    4791    4794    4821    4815       7
    4791    4794    4797    4803       7    4791    4794    4797    4800      15
    4791    4794   -4797    4800      16    4788    4791    4794    4821      18
    4788    4791   -4794    4821      19    4788    4791    4794    4797      18
    4788    4791   -4794    4797      19    4785    4788    4791    4794      18
    4785    4788   -4791    4794      19    4782    4785    4788    4791       7
    4782    4779    4776    4827      24    4782    4779   -4776    4827      25
    4782    4779   -4776    4827      26    4779    4782    4785    4788      27
    4779    4776    4827    4830      28    4776    4779    4782    4785      29
    4770    4926    4923    4929       3    4770    4926    4923    4920       3
    4767    4770    4926    4923       2    4767    4749    4755    4827       7
    4767    4749    4746    4776      32    4767    4749   -4746    4776      33
    4764    4758    4755    4827       7    4764    4767    4770    4926       3
    4761    4758    4764    4767       7    4761    4758    4755    4827       7
    4758    4764    4767    4770       7    4758    4755    4827    4830      11
    4758    4755    4827    4776      32    4758    4755   -4827    4776      33
    4758    4755   -4749    4767      20    4758    4755   -4749    4767      21
    4758    4755   -4749    4767      22    4755    4758   -4764    4767      20
    4755    4758   -4764    4767      21    4755    4758   -4764    4767      22
    4755    4827    4776    4779      34    4755    4827   -4776    4779       3
    4755    4749   -4767    4764      20    4755    4749   -4767    4764      21
    4755    4749   -4767    4764      22    4755    4749    4767    4770       7
    4755    4749   -4746    4776      32    4755    4749   -4746    4776      33
    4749    4767   -4764    4758      20    4749    4767   -4764    4758      21
    4749    4767   -4764    4758      22    4749    4767    4770    4926       3
    4749    4755    4758    4761       7    4749    4755   -4758    4764      20
    4749    4755   -4758    4764      21    4749    4755   -4758    4764      22
    4749    4755    4827    4830      11    4749    4755   -4827    4776      32
    4749    4755   -4827    4776      33    4749    4746   -4776    4827      28
    4749    4746    4776    4779      34    4749    4746   -4776    4779       3
    4746    4749    4767    4764       7    4746    4749    4767    4770       7
    4746    4749    4755    4758       7    4746    4749   -4755    4827       7
    4746    4776   -4827    4755      28    4746    4776    4827    4830      28
    4746    4776    4779    4782      24    4746    4776   -4779    4782      25
    4746    4776   -4779    4782      26    4743    4746    4749    4767      11
    4743    4746    4749    4755      11    4743    4746    4776    4827      28
    4743    4746    4776    4779      28    4983    4980    4986    4989      15
    4983    4980   -4986    4989      16    4977    4980    4986    4989      15
    4977    4980   -4986    4989      16    4974    4971    4968    4977      15
    4974    4971   -4968    4977      16    4971    4968    4977    4980      18
    4971    4968   -4977    4980      19    4968    4977    4980    4983      17
    4968    4977    4980    4986      18    4968    4977   -4980    4986      19
    4968    4962   -4959    4986      20    4968    4962   -4959    4986      21
    4968    4962   -4959    4986      22    4965    4962    4959    4986       7
    4965    4962    4968    4977      15    4965    4962   -4968    4977      16
    4965    4962    4968    4971       7    4962    4959    4986    4989       7
    4962    4959    4986    4980      20    4962    4959   -4986    4980      21
    4962    4959   -4986    4980      22    4962    4968   -4977    4980      18
    4962    4968   -4977    4980      19    4962    4968    4971    4974       7
    4959    4986    4980    4983       7    4959    4986    4980    4977       7
    4959    4962   -4968    4977       7    4959    4962    4968    4971      20
    4959    4962   -4968    4971      21    4959    4962   -4968    4971      22
    4956    4959    4986    4989      15    4956    4959   -4986    4989      16
    4956    4959    4986    4980       7    4956    4959    4962    4968       7
    4956    4959    4962    4965      15    4956    4959   -4962    4965      16
    4953    4956    4959    4986      18    4953    4956   -4959    4986      19
    4953    4956    4959    4962      18    4953    4956   -4959    4962      19
    4950    4953    4956    4959      18    4950    4953   -4956    4959      19
    4947    4950    4953    4956       7    4947    4944    4941    4992      24
    4947    4944   -4941    4992      25    4947    4944   -4941    4992      26
    4944    4947    4950    4953      27    4944    4941    4992    4995      28
    4941    4944    4947    4950      29    4932    4914    4920    4992       7
    4932    4914    4911    4941      32    4932    4914   -4911    4941      33
    4929    4923    4920    4992       7    4929    4932    4935    5073       3
    4926    4923    4929    4932       7    4926    4923    4920    4992       7
    4923    4929    4932    4935       7    4923    4920    4992    4995      11
    4923    4920    4992    4941      32    4923    4920   -4992    4941      33
    4923    4920   -4914    4932      20    4923    4920   -4914    4932      21
    4923    4920   -4914    4932      22    4920    4923   -4929    4932      20
    4920    4923   -4929    4932      21    4920    4923   -4929    4932      22
    4920    4992    4941    4944      34    4920    4992   -4941    4944       3
    4920    4914   -4932    4929      20    4920    4914   -4932    4929      21
    4920    4914   -4932    4929      22    4920    4914    4932    4935       7
    4920    4914   -4911    4941      32    4920    4914   -4911    4941      33
    4914    4932   -4929    4923      20    4914    4932   -4929    4923      21
    4914    4932   -4929    4923      22    4914    4932    4935    5073       3
    4914    4920    4923    4926       7    4914    4920   -4923    4929      20
    4914    4920   -4923    4929      21    4914    4920   -4923    4929      22
    4914    4920    4992    4995      11    4914    4920   -4992    4941      32
    4914    4920   -4992    4941      33    4914    4911   -4941    4992      28
    4914    4911    4941    4944      34    4914    4911   -4941    4944       3
    4911    4914    4932    4929       7    4911    4914    4932    4935       7
    4911    4914    4920    4923       7    4911    4914   -4920    4992       7
    4911    4941   -4992    4920      28    4911    4941    4992    4995      28
    4911    4941    4944    4947      24    4911    4941   -4944    4947      25
    4911    4941   -4944    4947      26    4908    4911    4914    4932      11
    4908    4911    4914    4920      11    4908    4911    4941    4992      28
    4908    4911    4941    4944      28      15      27     -45     -42      35
       6      36     -42     -45      35      33      39     -36     -42      35
      24      30     -27     -45      35      12      18     -15     -45      35
       3       9      -6     -42      35      99     120    -171    -174      36
      90     171    -120    -123      35      93     120     -90     -87      36
     264     285    -336    -339      36     255     336    -285    -288      35
     258     285    -255    -252      36     429     450    -501    -504      36
     420     501    -450    -453      35     423     450    -420    -417      36
     594     615    -666    -669      36     585     666    -615    -618      35
     588     615    -585    -582      36     759     780    -831    -834      36
     750     831    -780    -783      35     753     780    -750    -747      36
     924     945    -996    -999      36     915     996    -945    -948      35
     918     945    -915    -912      36    1089    1110   -1161   -1164      36
    1080    1161   -1110   -1113      35    1083    1110   -1080   -1077      36
    1254    1275   -1326   -1329      36    1245    1326   -1275   -1278      35
    1248    1275   -1245   -1242      36    1419    1440   -1491   -1494      36
    1410    1491   -1440   -1443      35    1413    1440   -1410   -1407      36
    1584    1605   -1656   -1659      36    1575    1656   -1605   -1608      35
    1578    1605   -1575   -1572      36    1767    1788   -1839   -1842      36
    1758    1839   -1788   -1791      35    1761    1788   -1758   -1755      36
    1932    1953   -2004   -2007      36    1923    2004   -1953   -1956      35
    1926    1953   -1923   -1920      36    2097    2118   -2169   -2172      36
    2088    2169   -2118   -2121      35    2091    2118   -2088   -2085      36
    2262    2283   -2334   -2337      36    2253    2334   -2283   -2286      35
    2256    2283   -2253   -2250      36    2427    2448   -2499   -2502      36
    2418    2499   -2448   -2451      35    2421    2448   -2418   -2415      36
    2592    2613   -2664   -2667      36    2583    2664   -2613   -2616      35
    2586    2613   -2583   -2580      36    2757    2778   -2829   -2832      36
    2748    2829   -2778   -2781      35    2751    2778   -2748   -2745      36
    2922    2943   -2994   -2997      36    2913    2994   -2943   -2946      35
    2916    2943   -2913   -2910      36    3087    3108   -3159   -3162      36
    3078    3159   -3108   -3111      35    3081    3108   -3078   -3075      36
    3252    3273   -3324   -3327      36    3243    3324   -3273   -3276      35
    3246    3273   -3243   -3240      36    3435    3456   -3507   -3510      36
    3426    3507   -3456   -3459      35    3429    3456   -3426   -3423      36
    3600    3621   -3672   -3675      36    3591    3672   -3621   -3624      35
    3594    3621   -3591   -3588      36    3765    3786   -3837   -3840      36
    3756    3837   -3786   -3789      35    3759    3786   -3756   -3753      36
    3930    3951   -4002   -4005      36    3921    4002   -3951   -3954      35
    3924    3951   -3921   -3918      36    4095    4116   -4167   -4170      36
    4086    4167   -4116   -4119      35    4089    4116   -4086   -4083      36
    4260    4281   -4332   -4335      36    4251    4332   -4281   -4284      35
    4254    4281   -4251   -4248      36    4425    4446   -4497   -4500      36
    4416    4497   -4446   -4449      35    4419    4446   -4416   -4413      36
    4590    4611   -4662   -4665      36    4581    4662   -4611   -4614      35
    4584    4611   -4581   -4578      36    4755    4776   -4827   -4830      36
    4746    4827   -4776   -4779      35    4749    4776   -4746   -4743      36
    4920    4941   -4992   -4995      36    4911    4992   -4941   -4944      35
    4914    4941   -4911   -4908      36
%FLAG EXCLUDED_ATOMS_LIST                                                       
%FORMAT(10I8)                                                                   
       2       3       4      12      13      14      15      17      18      26
       3       4       5      13      14      15      16      17      18      19
      26       4       5       6      10      12      13      14      15      16
      17      18      19      20       5       6       7      13      15      16
      18      19      20       6       7       8      10      15      16      19
      20      21       7       8       9      10      11      13      15      16
      19      20      21      22       8       9      10      15      16      20
      21      22      23       9      10      11      16      21      22      23
      10      11      12      15      16      21      22      23      24      11
      12      13      15      16      22      23      24      25      12      13
      14      15      16      23      24      25      13      14      15      16
      24      25      26      14      15      16      17      24      25      26
      15      16      17      18      25      26      16      18      19      25
      26      20      21      23      24      18      26       0      20       0
      22      23       0      25       0       0      28      29      34      35
      36      37      60      61      29      35      36      61      35      36
      61      31      32      33      34      38      41      42      58      32
      33      34      35      37      38      39      40      41      42      43
      58      59      64      66      67      33      34      35      36      37
      38      39      40      41      42      58      59      60      62      63
      64      65      91      34      35      37      38      39      40      41
      58      64      35      36      37      38      39      40      41      42
      58      59      60      61      62      63      64      36      37      38
      39      40      41      58      59      60      61      62      63      64
      37      38      40      58      60      61      62      63      38      39
      40      58      60      61      62      63      64      65      91      39
      40      41      58      60      62      63      64      65      90      91
     116      62      63      64      65      89      90      91      92     115
     116      41      58      59      60      42      43      44      58      59
      66      67      68      69      43      44      45      58      59      66
      67      68      69      70      71      44      45      46      58      66
      67      68      69      70      71      72      73      45      46      47
      66      67      68      69      70      71      72      73      46      47
      48      56      68      69      70      71      72      73      74      47
      48      49      50      54      56      57      70      71      72      73
      74      75      83      48      49      50      51      53      54      55
      56      57      72      73      74      75      76      77      81      83
      84      49      50      51      52      53      54      56      57      74
      75      76      77      78      79      83      50      51      53      56
      74      75      76      77      51      52      53      54      55      56
      74      75      76      77      78      79      80      81      52      53
      54      75      77      78      79      80      53      77      78      79
      80      54      55      56      57      75      77      78      79      81
      82      83      55      56      57      74      77      81      82      83
      84      56      57      81      82      83      57      74      75      81
      82      83      84      74      81      83      84      59      60      66
      67       0      61      62      63       0      63      64      64      65
      91      90      91     116      67      68      69      68      69      69
      70      71      70      71      71      72      73      72      73      73
       0      75      83      76      77       0      78      79      79      80
      80       0      82      83       0      84       0      86      87      88
      89      93      96      97     113      87      88      89      90      92
      93      94      95      96      97      98     113     114     119     121
     122      88      89      90      91      92      93      94      95      96
      97     113     114     115     117     118     119     120     146      89
      90      92      93      94      95      96     113     119      90      91
      92      93      94      95      96      97     113     114     115     116
     117     118     119      91      92      93      94      95      96     113
     114     115     116     117     118     119      92      93      95     113
     115     116     117     118      93      94      95     113     115     116
     117     118     119     120     146      94      95      96     113     115
     117     118     119     120     145     146     171     117     118     119
     120     144     145     146     147     170     171      96     113     114
     115      97      98      99     113     114     121     122     123     124
      98      99     100     113     114     121     122     123     124     125
     126      99     100     101     113     121     122     123     124     125
     126     127     128     100     101     102     121     122     123     124
     125     126     127     128     101     102     103     111     123     124
     125     126     127     128     129     102     103     104     105     109
     111     112     125     126     127     128     129     130     138     103
     104     105     106     108     109     110     111     112     127     128
     129     130     131     132     136     138     139     104     105     106
     107     108     109     111     112     129     130     131     132     133
     134     138     105     106     108     111     129     130     131     132
     106     107     108     109     110     111     129     130     131     132
     133     134     135     136     107     108     109     130     132     133
     134     135     108     132     133     134     135     109     110     111
     112     130     132     133     134     136     137     138     110     111
     112     129     132     136     137     138     139     111     112     136
     137     138     112     129     130     136     137     138     139     129
     136     138     139     114     115     121     122       0     116     117
     118       0     118     119     119     120     146     145     146     171
     122     123     124     123     124     124     125     126     125     126
     126     127     128     127     128     128       0     130     138     131
     132       0     133     134     134     135     135       0     137     138
       0     139       0     141     142     143     144     148     151     152
     168     142     143     144     145     147     148     149     150     151
     152     153     168     169     174     176     177     143     144     145
     146     147     148     149     150     151     152     168     169     170
     172     173     174     175     201     144     145     147     148     149
     150     151     168     174     145     146     147     148     149     150
     151     152     168     169     170     171     172     173     174     146
     147     148     149     150     151     168     169     170     171     172
     173     174     147     148     150     168     170     171     172     173
     148     149     150     168     170     171     172     173     174     175
     201     149     150     151     168     170     172     173     174     175
     200     201     226     172     173     174     175     199     200     201
     202     225     226     151     168     169     170     152     153     154
     168     169     176     177     178     179     153     154     155     168
     169     176     177     178     179     180     181     154     155     156
     168     176     177     178     179     180     181     182     183     155
     156     157     176     177     178     179     180     181     182     183
     156     157     158     166     178     179     180     181     182     183
     184     157     158     159     160     164     166     167     180     181
     182     183     184     185     193     158     159     160     161     163
     164     165     166     167     182     183     184     185     186     187
     191     193     194     159     160     161     162     163     164     166
     167     184     185     186     187     188     189     193     160     161
     163     166     184     185     186     187     161     162     163     164
     165     166     184     185     186     187     188     189     190     191
     162     163     164     185     187     188     189     190     163     187
     188     189     190     164     165     166     167     185     187     188
     189     191     192     193     165     166     167     184     187     191
     192     193     194     166     167     191     192     193     167     184
     185     191     192     193     194     184     191     193     194     169
     170     176     177       0     171     172     173       0     173     174
     174     175     201     200     201     226     177     178     179     178
     179     179     180     181     180     181     181     182     183     182
     183     183       0     185     193     186     187       0     188     189
     189     190     190       0     192     193       0     194       0     196
     197     198     199     203     206     207     223     197     198     199
     200     202     203     204     205     206     207     208     223     224
     229     231     232     198     199     200     201     202     203     204
     205     206     207     223     224     225     227     228     229     230
     256     199     200     202     203     204     205     206     223     229
     200     201     202     203     204     205     206     207     223     224
     225     226     227     228     229     201     202     203     204     205
     206     223     224     225     226     227     228     229     202     203
     205     223     225     226     227     228     203     204     205     223
     225     226     227     228     229     230     256     204     205     206
     223     225     227     228     229     230     255     256     281     227
     228     229     230     254     255     256     257     280     281     206
     223     224     225     207     208     209     223     224     231     232
     233     234     208     209     210     223     224     231     232     233
     234     235     236     209     210     211     223     231     232     233
     234     235     236     237     238     210     211     212     231     232
     233     234     235     236     237     238     211     212     213     221
     233     234     235     236     237     238     239     212     213     214
     215     219     221     222     235     236     237     238     239     240
     248     213     214     215     216     218     219     220     221     222
     237     238     239     240     241     242     246     248     249     214
     215     216     217     218     219     221     222     239     240     241
     242     243     244     248     215     216     218     221     239     240
     241     242     216     217     218     219     220     221     239     240
     241     242     243     244     245     246     217     218     219     240
     242     243     244     245     218     242     243     244     245     219
     220     221     222     240     242     243     244     246     247     248
     220     221     222     239     242     246     247     248     249     221
     222     246     247     248     222     239     240     246     247     248
     249     239     246     248     249     224     225     231     232       0
     226     227     228       0     228     229     229     230     256     255
     256     281     232     233     234     233     234     234     235     236
     235     236     236     237     238     237     238     238       0     240
     248     241     242       0     243     244     244     245     245       0
     247     248       0     249       0     251     252     253     254     258
     261     262     278     252     253     254     255     257     258     259
     260     261     262     263     278     279     284     286     287     253
     254     255     256     257     258     259     260     261     262     278
     279     280     282     283     284     285     311     254     255     257
     258     259     260     261     278     284     255     256     257     258
     259     260     261     262     278     279     280     281     282     283
     284     256     257     258     259     260     261     278     279     280
     281     282     283     284     257     258     260     278     280     281
     282     283     258     259     260     278     280     281     282     283
     284     285     311     259     260     261     278     280     282     283
     284     285     310     311     336     282     283     284     285     309
     310     311     312     335     336     261     278     279     280     262
     263     264     278     279     286     287     288     289     263     264
     265     278     279     286     287     288     289     290     291     264
     265     266     278     286     287     288     289     290     291     292
     293     265     266     267     286     287     288     289     290     291
     292     293     266     267     268     276     288     289     290     291
     292     293     294     267     268     269     270     274     276     277
     290     291     292     293     294     295     303     268     269     270
     271     273     274     275     276     277     292     293     294     295
     296     297     301     303     304     269     270     271     272     273
     274     276     277     294     295     296     297     298     299     303
     270     271     273     276     294     295     296     297     271     272
     273     274     275     276     294     295     296     297     298     299
     300     301     272     273     274     295     297     298     299     300
     273     297     298     299     300     274     275     276     277     295
     297     298     299     301     302     303     275     276     277     294
     297     301     302     303     304     276     277     301     302     303
     277     294     295     301     302     303     304     294     301     303
     304     279     280     286     287       0     281     282     283       0
     283     284     284     285     311     310     311     336     287     288
     289     288     289     289     290     291     290     291     291     292
     293     292     293     293       0     295     303     296     297       0
     298     299     299     300     300       0     302     303       0     304
       0     306     307     308     309     313     316     317     333     307
     308     309     310     312     313     314     315     316     317     318
     333     334     339     341     342     308     309     310     311     312
     313     314     315     316     317     333     334     335     337     338
     339     340     366     309     310     312     313     314     315     316
     333     339     310     311     312     313     314     315     316     317
     333     334     335     336     337     338     339     311     312     313
     314     315     316     333     334     335     336     337     338     339
     312     313     315     333     335     336     337     338     313     314
     315     333     335     336     337     338     339     340     366     314
     315     316     333     335     337     338     339     340     365     366
     391     337     338     339     340     364     365     366     367     390
     391     316     333     334     335     317     318     319     333     334
     341     342     343     344     318     319     320     333     334     341
     342     343     344     345     346     319     320     321     333     341
     342     343     344     345     346     347     348     320     321     322
     341     342     343     344     345     346     347     348     321     322
     323     331     343     344     345     346     347     348     349     322
     323     324     325     329     331     332     345     346     347     348
     349     350     358     323     324     325     326     328     329     330
     331     332     347     348     349     350     351     352     356     358
     359     324     325     326     327     328     329     331     332     349
     350     351     352     353     354     358     325     326     328     331
     349     350     351     352     326     327     328     329     330     331
     349     350     351     352     353     354     355     356     327     328
     329     350     352     353     354     355     328     352     353     354
     355     329     330     331     332     350     352     353     354     356
     357     358     330     331     332     349     352     356     357     358
     359     331     332     356     357     358     332     349     350     356
     357     358     359     349     356     358     359     334     335     341
     342       0     336     337     338       0     338     339     339     340
     366     365     366     391     342     343     344     343     344     344
     345     346     345     346     346     347     348     347     348     348
       0     350     358     351     352       0     353     354     354     355
     355       0     357     358       0     359       0     361     362     363
     364     368     371     372     388     362     363     364     365     367
     368     369     370     371     372     373     388     389     394     396
     397     363     364     365     366     367     368     369     370     371
     372     388     389     390     392     393     394     395     421     364
     365     367     368     369     370     371     388     394     365     366
     367     368     369     370     371     372     388     389     390     391
     392     393     394     366     367     368     369     370     371     388
     389     390     391     392     393     394     367     368     370     388
     390     391     392     393     368     369     370     388     390     391
     392     393     394     395     421     369     370     371     388     390
     392     393     394     395     420     421     446     392     393     394
     395     419     420     421     422     445     446     371     388     389
     390     372     373     374     388     389     396     397     398     399
     373     374     375     388     389     396     397     398     399     400
     401     374     375     376     388     396     397     398     399     400
     401     402     403     375     376     377     396     397     398     399
     400     401     402     403     376     377     378     386     398     399
     400     401     402     403     404     377     378     379     380     384
     386     387     400     401     402     403     404     405     413     378
     379     380     381     383     384     385     386     387     402     403
     404     405     406     407     411     413     414     379     380     381
     382     383     384     386     387     404     405     406     407     408
     409     413     380     381     383     386     404     405     406     407
     381     382     383     384     385     386     404     405     406     407
     408     409     410     411     382     383     384     405     407     408
     409     410     383     407     408     409     410     384     385     386
     387     405     407     408     409     411     412     413     385     386
     387     404     407     411     412     413     414     386     387     411
     412     413     387     404     405     411     412     413     414     404
     411     413     414     389     390     396     397       0     391     392
     393       0     393     394     394     395     421     420     421     446
     397     398     399     398     399     399     400     401     400     401
     401     402     403     402     403     403       0     405     413     406
     407       0     408     409     409     410     410       0     412     413
       0     414       0     416     417     418     419     423     426     427
     443     417     418     419     420     422     423     424     425     426
     427     428     443     444     449     451     452     418     419     420
     421     422     423     424     425     426     427     443     444     445
     447     448     449     450     476     419     420     422     423     424
     425     426     443     449     420     421     422     423     424     425
     426     427     443     444     445     446     447     448     449     421
     422     423     424     425     426     443     444     445     446     447
     448     449     422     423     425     443     445     446     447     448
     423     424     425     443     445     446     447     448     449     450
     476     424     425     426     443     445     447     448     449     450
     475     476     501     447     448     449     450     474     475     476
     477     500     501     426     443     444     445     427     428     429
     443     444     451     452     453     454     428     429     430     443
     444     451     452     453     454     455     456     429     430     431
     443     451     452     453     454     455     456     457     458     430
     431     432     451     452     453     454     455     456     457     458
     431     432     433     441     453     454     455     456     457     458
     459     432     433     434     435     439     441     442     455     456
     457     458     459     460     468     433     434     435     436     438
     439     440     441     442     457     458     459     460     461     462
     466     468     469     434     435     436     437     438     439     441
     442     459     460     461     462     463     464     468     435     436
     438     441     459     460     461     462     436     437     438     439
     440     441     459     460     461     462     463     464     465     466
     437     438     439     460     462     463     464     465     438     462
     463     464     465     439     440     441     442     460     462     463
     464     466     467     468     440     441     442     459     462     466
     467     468     469     441     442     466     467     468     442     459
     460     466     467     468     469     459     466     468     469     444
     445     451     452       0     446     447     448       0     448     449
     449     450     476     475     476     501     452     453     454     453
     454     454     455     456     455     456     456     457     458     457
     458     458       0     460     468     461     462       0     463     464
     464     465     465       0     467     468       0     469       0     471
     472     473     474     478     481     482     498     472     473     474
     475     477     478     479     480     481     482     483     498     499
     504     506     507     473     474     475     476     477     478     479
     480     481     482     498     499     500     502     503     504     505
     531     474     475     477     478     479     480     481     498     504
     475     476     477     478     479     480     481     482     498     499
     500     501     502     503     504     476     477     478     479     480
     481     498     499     500     501     502     503     504     477     478
     480     498     500     501     502     503     478     479     480     498
     500     501     502     503     504     505     531     479     480     481
     498     500     502     503     504     505     530     531     556     502
     503     504     505     529     530     531     532     555     556     481
     498     499     500     482     483     484     498     499     506     507
     508     509     483     484     485     498     499     506     507     508
     509     510     511     484     485     486     498     506     507     508
     509     510     511     512     513     485     486     487     506     507
     508     509     510     511     512     513     486     487     488     496
     508     509     510     511     512     513     514     487     488     489
     490     494     496     497     510     511     512     513     514     515
     523     488     489     490     491     493     494     495     496     497
     512     513     514     515     516     517     521     523     524     489
     490     491     492     493     494     496     497     514     515     516
     517     518     519     523     490     491     493     496     514     515
     516     517     491     492     493     494     495     496     514     515
     516     517     518     519     520     521     492     493     494     515
     517     518     519     520     493     517     518     519     520     494
     495     496     497     515     517     518     519     521     522     523
     495     496     497     514     517     521     522     523     524     496
     497     521     522     523     497     514     515     521     522     523
     524     514     521     523     524     499     500     506     507       0
     501     502     503       0     503     504     504     505     531     530
     531     556     507     508     509     508     509     509     510     511
     510     511     511     512     513     512     513     513       0     515
     523     516     517       0     518     519     519     520     520       0
     522     523       0     524       0     526     527     528     529     533
     536     537     553     527     528     529     530     532     533     534
     535     536     537     538     553     554     559     561     562     528
     529     530     531     532     533     534     535     536     537     553
     554     555     557     558     559     560     580     529     530     532
     533     534     535     536     553     559     530     531     532     533
     534     535     536     537     553     554     555     556     557     558
     559     531     532     533     534     535     536     553     554     555
     556     557     558     559     532     533     535     553     555     556
     557     558     533     534     535     553     555     556     557     558
     559     560     580     534     535     536     553     555     557     558
     559     560     580     581     582     557     558     559     560     580
     581     582     536     553     554     555     537     538     539     553
     554     561     562     563     564     538     539     540     553     554
     561     562     563     564     565     566     539     540     541     553
     561     562     563     564     565     566     567     568     540     541
     542     561     562     563     564     565     566     567     568     541
     542     543     551     563     564     565     566     567     568     569
     542     543     544     545     549     551     552     565     566     567
     568     569     570     578     543     544     545     546     548     549
     550     551     552     567     568     569     570     571     572     576
     578     579     544     545     546     547     548     549     551     552
     569     570     571     572     573     574     578     545     546     548
     551     569     570     571     572     546     547     548     549     550
     551     569     570     571     572     573     574     575     576     547
     548     549     570     572     573     574     575     548     572     573
     574     575     549     550     551     552     570     572     573     574
     576     577     578     550     551     552     569     572     576     577
     578     579     551     552     576     577     578     552     569     570
     576     577     578     579     569     576     578     579     554     555
     561     562       0     556     557     558       0     558     559     559
     560     580     580     581     582     562     563     564     563     564
     564     565     566     565     566     566     567     568     567     568
     568       0     570     578     571     572       0     573     574     574
     575     575       0     577     578       0     579       0     581     582
     582       0     584     585     590     591     592     593     616     617
     585     591     592     617     591     592     617     587     588     589
     590     594     597     598     614     588     589     590     591     593
     594     595     596     597     598     599     614     615     620     622
     623     589     590     591     592     593     594     595     596     597
     598     614     615     616     618     619     620     621     647     590
     591     593     594     595     596     597     614     620     591     592
     593     594     595     596     597     598     614     615     616     617
     618     619     620     592     593     594     595     596     597     614
     615     616     617     618     619     620     593     594     596     614
     616     617     618     619     594     595     596     614     616     617
     618     619     620     621     647     595     596     597     614     616
     618     619     620     621     646     647     672     618     619     620
     621     645     646     647     648     671     672     597     614     615
     616     598     599     600     614     615     622     623     624     625
     599     600     601     614     615     622     623     624     625     626
     627     600     601     602     614     622     623     624     625     626
     627     628     629     601     602     603     622     623     624     625
     626     627     628     629     602     603     604     612     624     625
     626     627     628     629     630     603     604     605     606     610
     612     613     626     627     628     629     630     631     639     604
     605     606     607     609     610     611     612     613     628     629
     630     631     632     633     637     639     640     605     606     607
     608     609     610     612     613     630     631     632     633     634
     635     639     606     607     609     612     630     631     632     633
     607     608     609     610     611     612     630     631     632     633
     634     635     636     637     608     609     610     631     633     634
     635     636     609     633     634     635     636     610     611     612
     613     631     633     634     635     637     638     639     611     612
     613     630     633     637     638     639     640     612     613     637
     638     639     613     630     631     637     638     639     640     630
     637     639     640     615     616     622     623       0     617     618
     619       0     619     620     620     621     647     646     647     672
     623     624     625     624     625     625     626     627     626     627
     627     628     629     628     629     629       0     631     639     632
     633       0     634     635     635     636     636       0     638     639
       0     640       0     642     643     644     645     649     652     653
     669     643     644     645     646     648     649     650     651     652
     653     654     669     670     675     677     678     644     645     646
     647     648     649     650     651     652     653     669     670     671
     673     674     675     676     702     645     646     648     649     650
     651     652     669     675     646     647     648     649     650     651
     652     653     669     670     671     672     673     674     675     647
     648     649     650     651     652     669     670     671     672     673
     674     675     648     649     651     669     671     672     673     674
     649     650     651     669     671     672     673     674     675     676
     702     650     651     652     669     671     673     674     675     676
     701     702     727     673     674     675     676     700     701     702
     703     726     727     652     669     670     671     653     654     655
     669     670     677     678     679     680     654     655     656     669
     670     677     678     679     680     681     682     655     656     657
     669     677     678     679     680     681     682     683     684     656
     657     658     677     678     679     680     681     682     683     684
     657     658     659     667     679     680     681     682     683     684
     685     658     659     660     661     665     667     668     681     682
     683     684     685     686     694     659     660     661     662     664
     665     666     667     668     683     684     685     686     687     688
     692     694     695     660     661     662     663     664     665     667
     668     685     686     687     688     689     690     694     661     662
     664     667     685     686     687     688     662     663     664     665
     666     667     685     686     687     688     689     690     691     692
     663     664     665     686     688     689     690     691     664     688
     689     690     691     665     666     667     668     686     688     689
     690     692     693     694     666     667     668     685     688     692
     693     694     695     667     668     692     693     694     668     685
     686     692     693     694     695     685     692     694     695     670
     671     677     678       0     672     673     674       0     674     675
     675     676     702     701     702     727     678     679     680     679
     680     680     681     682     681     682     682     683     684     683
     684     684       0     686     694     687     688       0     689     690
     690     691     691       0     693     694       0     695       0     697
     698     699     700     704     707     708     724     698     699     700
     701     703     704     705     706     707     708     709     724     725
     730     732     733     699     700     701     702     703     704     705
     706     707     708     724     725     726     728     729     730     731
     757     700     701     703     704     705     706     707     724     730
     701     702     703     704     705     706     707     708     724     725
     726     727     728     729     730     702     703     704     705     706
     707     724     725     726     727     728     729     730     703     704
     706     724     726     727     728     729     704     705     706     724
     726     727     728     729     730     731     757     705     706     707
     724     726     728     729     730     731     756     757     782     728
     729     730     731     755     756     757     758     781     782     707
     724     725     726     708     709     710     724     725     732     733
     734     735     709     710     711     724     725     732     733     734
     735     736     737     710     711     712     724     732     733     734
     735     736     737     738     739     711     712     713     732     733
     734     735     736     737     738     739     712     713     714     722
     734     735     736     737     738     739     740     713     714     715
     716     720     722     723     736     737     738     739     740     741
     749     714     715     716     717     719     720     721     722     723
     738     739     740     741     742     743     747     749     750     715
     716     717     718     719     720     722     723     740     741     742
     743     744     745     749     716     717     719     722     740     741
     742     743     717     718     719     720     721     722     740     741
     742     743     744     745     746     747     718     719     720     741
     743     744     745     746     719     743     744     745     746     720
     721     722     723     741     743     744     745     747     748     749
     721     722     723     740     743     747     748     749     750     722
     723     747     748     749     723     740     741     747     748     749
     750     740     747     749     750     725     726     732     733       0
     727     728     729       0     729     730     730     731     757     756
     757     782     733     734     735     734     735     735     736     737
     736     737     737     738     739     738     739     739       0     741
     749     742     743       0     744     745     745     746     746       0
     748     749       0     750       0     752     753     754     755     759
     762     763     779     753     754     755     756     758     759     760
     761     762     763     764     779     780     785     787     788     754
     755     756     757     758     759     760     761     762     763     779
     780     781     783     784     785     786     812     755     756     758
     759     760     761     762     779     785     756     757     758     759
     760     761     762     763     779     780     781     782     783     784
     785     757     758     759     760     761     762     779     780     781
     782     783     784     785     758     759     761     779     781     782
     783     784     759     760     761     779     781     782     783     784
     785     786     812     760     761     762     779     781     783     784
     785     786     811     812     837     783     784     785     786     810
     811     812     813     836     837     762     779     780     781     763
     764     765     779     780     787     788     789     790     764     765
     766     779     780     787     788     789     790     791     792     765
     766     767     779     787     788     789     790     791     792     793
     794     766     767     768     787     788     789     790     791     792
     793     794     767     768     769     777     789     790     791     792
     793     794     795     768     769     770     771     775     777     778
     791     792     793     794     795     796     804     769     770     771
     772     774     775     776     777     778     793     794     795     796
     797     798     802     804     805     770     771     772     773     774
     775     777     778     795     796     797     798     799     800     804
     771     772     774     777     795     796     797     798     772     773
     774     775     776     777     795     796     797     798     799     800
     801     802     773     774     775     796     798     799     800     801
     774     798     799     800     801     775     776     777     778     796
     798     799     800     802     803     804     776     777     778     795
     798     802     803     804     805     777     778     802     803     804
     778     795     796     802     803     804     805     795     802     804
     805     780     781     787     788       0     782     783     784       0
     784     785     785     786     812     811     812     837     788     789
     790     789     790     790     791     792     791     792     792     793
     794     793     794     794       0     796     804     797     798       0
     799     800     800     801     801       0     803     804       0     805
       0     807     808     809     810     814     817     818     834     808
     809     810     811     813     814     815     816     817     818     819
     834     835     840     842     843     809     810     811     812     813
     814     815     816     817     818     834     835     836     838     839
     840     841     867     810     811     813     814     815     816     817
     834     840     811     812     813     814     815     816     817     818
     834     835     836     837     838     839     840     812     813     814
     815     816     817     834     835     836     837     838     839     840
     813     814     816     834     836     837     838     839     814     815
     816     834     836     837     838     839     840     841     867     815
     816     817     834     836     838     839     840     841     866     867
     892     838     839     840     841     865     866     867     868     891
     892     817     834     835     836     818     819     820     834     835
     842     843     844     845     819     820     821     834     835     842
     843     844     845     846     847     820     821     822     834     842
     843     844     845     846     847     848     849     821     822     823
     842     843     844     845     846     847     848     849     822     823
     824     832     844     845     846     847     848     849     850     823
     824     825     826     830     832     833     846     847     848     849
     850     851     859     824     825     826     827     829     830     831
     832     833     848     849     850     851     852     853     857     859
     860     825     826     827     828     829     830     832     833     850
     851     852     853     854     855     859     826     827     829     832
     850     851     852     853     827     828     829     830     831     832
     850     851     852     853     854     855     856     857     828     829
     830     851     853     854     855     856     829     853     854     855
     856     830     831     832     833     851     853     854     855     857
     858     859     831     832     833     850     853     857     858     859
     860     832     833     857     858     859     833     850     851     857
     858     859     860     850     857     859     860     835     836     842
     843       0     837     838     839       0     839     840     840     841
     867     866     867     892     843     844     845     844     845     845
     846     847     846     847     847     848     849     848     849     849
       0     851     859     852     853       0     854     855     855     856
     856       0     858     859       0     860       0     862     863     864
     865     869     872     873     889     863     864     865     866     868
     869     870     871     872     873     874     889     890     895     897
     898     864     865     866     867     868     869     870     871     872
     873     889     890     891     893     894     895     896     922     865
     866     868     869     870     871     872     889     895     866     867
     868     869     870     871     872     873     889     890     891     892
     893     894     895     867     868     869     870     871     872     889
     890     891     892     893     894     895     868     869     871     889
     891     892     893     894     869     870     871     889     891     892
     893     894     895     896     922     870     871     872     889     891
     893     894     895     896     921     922     947     893     894     895
     896     920     921     922     923     946     947     872     889     890
     891     873     874     875     889     890     897     898     899     900
     874     875     876     889     890     897     898     899     900     901
     902     875     876     877     889     897     898     899     900     901
     902     903     904     876     877     878     897     898     899     900
     901     902     903     904     877     878     879     887     899     900
     901     902     903     904     905     878     879     880     881     885
     887     888     901     902     903     904     905     906     914     879
     880     881     882     884     885     886     887     888     903     904
     905     906     907     908     912     914     915     880     881     882
     883     884     885     887     888     905     906     907     908     909
     910     914     881     882     884     887     905     906     907     908
     882     883     884     885     886     887     905     906     907     908
     909     910     911     912     883     884     885     906     908     909
     910     911     884     908     909     910     911     885     886     887
     888     906     908     909     910     912     913     914     886     887
     888     905     908     912     913     914     915     887     888     912
     913     914     888     905     906     912     913     914     915     905
     912     914     915     890     891     897     898       0     892     893
     894       0     894     895     895     896     922     921     922     947
     898     899     900     899     900     900     901     902     901     902
     902     903     904     903     904     904       0     906     914     907
     908       0     909     910     910     911     911       0     913     914
       0     915       0     917     918     919     920     924     927     928
     944     918     919     920     921     923     924     925     926     927
     928     929     944     945     950     952     953     919     920     921
     922     923     924     925     926     927     928     944     945     946
     948     949     950     951     977     920     921     923     924     925
     926     927     944     950     921     922     923     924     925     926
     927     928     944     945     946     947     948     949     950     922
     923     924     925     926     927     944     945     946     947     948
     949     950     923     924     926     944     946     947     948     949
     924     925     926     944     946     947     948     949     950     951
     977     925     926     927     944     946     948     949     950     951
     976     977    1002     948     949     950     951     975     976     977
     978    1001    1002     927     944     945     946     928     929     930
     944     945     952     953     954     955     929     930     931     944
     945     952     953     954     955     956     957     930     931     932
     944     952     953     954     955     956     957     958     959     931
     932     933     952     953     954     955     956     957     958     959
     932     933     934     942     954     955     956     957     958     959
     960     933     934     935     936     940     942     943     956     957
     958     959     960     961     969     934     935     936     937     939
     940     941     942     943     958     959     960     961     962     963
     967     969     970     935     936     937     938     939     940     942
     943     960     961     962     963     964     965     969     936     937
     939     942     960     961     962     963     937     938     939     940
     941     942     960     961     962     963     964     965     966     967
     938     939     940     961     963     964     965     966     939     963
     964     965     966     940     941     942     943     961     963     964
     965     967     968     969     941     942     943     960     963     967
     968     969     970     942     943     967     968     969     943     960
     961     967     968     969     970     960     967     969     970     945
     946     952     953       0     947     948     949       0     949     950
     950     951     977     976     977    1002     953     954     955     954
     955     955     956     957     956     957     957     958     959     958
     959     959       0     961     969     962     963       0     964     965
     965     966     966       0     968     969       0     970       0     972
     973     974     975     979     982     983     999     973     974     975
     976     978     979     980     981     982     983     984     999    1000
    1005    1007    1008     974     975     976     977     978     979     980
     981     982     983     999    1000    1001    1003    1004    1005    1006
    1032     975     976     978     979     980     981     982     999    1005
     976     977     978     979     980     981     982     983     999    1000
    1001    1002    1003    1004    1005     977     978     979     980     981
     982     999    1000    1001    1002    1003    1004    1005     978     979
     981     999    1001    1002    1003    1004     979     980     981     999
    1001    1002    1003    1004    1005    1006    1032     980     981     982
     999    1001    1003    1004    1005    1006    1031    1032    1057    1003
    1004    1005    1006    1030    1031    1032    1033    1056    1057     982
     999    1000    1001     983     984     985     999    1000    1007    1008
    1009    1010     984     985     986     999    1000    1007    1008    1009
    1010    1011    1012     985     986     987     999    1007    1008    1009
    1010    1011    1012    1013    1014     986     987     988    1007    1008
    1009    1010    1011    1012    1013    1014     987     988     989     997
    1009    1010    1011    1012    1013    1014    1015     988     989     990
     991     995     997     998    1011    1012    1013    1014    1015    1016
    1024     989     990     991     992     994     995     996     997     998
    1013    1014    1015    1016    1017    1018    1022    1024    1025     990
     991     992     993     994     995     997     998    1015    1016    1017
    1018    1019    1020    1024     991     992     994     997    1015    1016
    1017    1018     992     993     994     995     996     997    1015    1016
    1017    1018    1019    1020    1021    1022     993     994     995    1016
    1018    1019    1020    1021     994    1018    1019    1020    1021     995
     996     997     998    1016    1018    1019    1020    1022    1023    1024
     996     997     998    1015    1018    1022    1023    1024    1025     997
     998    1022    1023    1024     998    1015    1016    1022    1023    1024
    1025    1015    1022    1024    1025    1000    1001    1007    1008       0
    1002    1003    1004       0    1004    1005    1005    1006    1032    1031
    1032    1057    1008    1009    1010    1009    1010    1010    1011    1012
    1011    1012    1012    1013    1014    1013    1014    1014       0    1016
    1024    1017    1018       0    1019    1020    1020    1021    1021       0
    1023    1024       0    1025       0    1027    1028    1029    1030    1034
    1037    1038    1054    1028    1029    1030    1031    1033    1034    1035
    1036    1037    1038    1039    1054    1055    1060    1062    1063    1029
    1030    1031    1032    1033    1034    1035    1036    1037    1038    1054
    1055    1056    1058    1059    1060    1061    1087    1030    1031    1033
    1034    1035    1036    1037    1054    1060    1031    1032    1033    1034
    1035    1036    1037    1038    1054    1055    1056    1057    1058    1059
    1060    1032    1033    1034    1035    1036    1037    1054    1055    1056
    1057    1058    1059    1060    1033    1034    1036    1054    1056    1057
    1058    1059    1034    1035    1036    1054    1056    1057    1058    1059
    1060    1061    1087    1035    1036    1037    1054    1056    1058    1059
    1060    1061    1086    1087    1112    1058    1059    1060    1061    1085
    1086    1087    1088    1111    1112    1037    1054    1055    1056    1038
    1039    1040    1054    1055    1062    1063    1064    1065    1039    1040
    1041    1054    1055    1062    1063    1064    1065    1066    1067    1040
    1041    1042    1054    1062    1063    1064    1065    1066    1067    1068
    1069    1041    1042    1043    1062    1063    1064    1065    1066    1067
    1068    1069    1042    1043    1044    1052    1064    1065    1066    1067
    1068    1069    1070    1043    1044    1045    1046    1050    1052    1053
    1066    1067    1068    1069    1070    1071    1079    1044    1045    1046
    1047    1049    1050    1051    1052    1053    1068    1069    1070    1071
    1072    1073    1077    1079    1080    1045    1046    1047    1048    1049
    1050    1052    1053    1070    1071    1072    1073    1074    1075    1079
    1046    1047    1049    1052    1070    1071    1072    1073    1047    1048
    1049    1050    1051    1052    1070    1071    1072    1073    1074    1075
    1076    1077    1048    1049    1050    1071    1073    1074    1075    1076
    1049    1073    1074    1075    1076    1050    1051    1052    1053    1071
    1073    1074    1075    1077    1078    1079    1051    1052    1053    1070
    1073    1077    1078    1079    1080    1052    1053    1077    1078    1079
    1053    1070    1071    1077    1078    1079    1080    1070    1077    1079
    1080    1055    1056    1062    1063       0    1057    1058    1059       0
    1059    1060    1060    1061    1087    1086    1087    1112    1063    1064
    1065    1064    1065    1065    1066    1067    1066    1067    1067    1068
    1069    1068    1069    1069       0    1071    1079    1072    1073       0
    1074    1075    1075    1076    1076       0    1078    1079       0    1080
       0    1082    1083    1084    1085    1089    1092    1093    1109    1083
    1084    1085    1086    1088    1089    1090    1091    1092    1093    1094
    1109    1110    1115    1117    1118    1084    1085    1086    1087    1088
    1089    1090    1091    1092    1093    1109    1110    1111    1113    1114
    1115    1116    1136    1085    1086    1088    1089    1090    1091    1092
    1109    1115    1086    1087    1088    1089    1090    1091    1092    1093
    1109    1110    1111    1112    1113    1114    1115    1087    1088    1089
    1090    1091    1092    1109    1110    1111    1112    1113    1114    1115
    1088    1089    1091    1109    1111    1112    1113    1114    1089    1090
    1091    1109    1111    1112    1113    1114    1115    1116    1136    1090
    1091    1092    1109    1111    1113    1114    1115    1116    1136    1137
    1138    1113    1114    1115    1116    1136    1137    1138    1092    1109
    1110    1111    1093    1094    1095    1109    1110    1117    1118    1119
    1120    1094    1095    1096    1109    1110    1117    1118    1119    1120
    1121    1122    1095    1096    1097    1109    1117    1118    1119    1120
    1121    1122    1123    1124    1096    1097    1098    1117    1118    1119
    1120    1121    1122    1123    1124    1097    1098    1099    1107    1119
    1120    1121    1122    1123    1124    1125    1098    1099    1100    1101
    1105    1107    1108    1121    1122    1123    1124    1125    1126    1134
    1099    1100    1101    1102    1104    1105    1106    1107    1108    1123
    1124    1125    1126    1127    1128    1132    1134    1135    1100    1101
    1102    1103    1104    1105    1107    1108    1125    1126    1127    1128
    1129    1130    1134    1101    1102    1104    1107    1125    1126    1127
    1128    1102    1103    1104    1105    1106    1107    1125    1126    1127
    1128    1129    1130    1131    1132    1103    1104    1105    1126    1128
    1129    1130    1131    1104    1128    1129    1130    1131    1105    1106
    1107    1108    1126    1128    1129    1130    1132    1133    1134    1106
    1107    1108    1125    1128    1132    1133    1134    1135    1107    1108
    1132    1133    1134    1108    1125    1126    1132    1133    1134    1135
    1125    1132    1134    1135    1110    1111    1117    1118       0    1112
    1113    1114       0    1114    1115    1115    1116    1136    1136    1137
    1138    1118    1119    1120    1119    1120    1120    1121    1122    1121
    1122    1122    1123    1124    1123    1124    1124       0    1126    1134
    1127    1128       0    1129    1130    1130    1131    1131       0    1133
    1134       0    1135       0    1137    1138    1138       0    1140    1141
    1146    1147    1148    1149    1172    1173    1141    1147    1148    1173
    1147    1148    1173    1143    1144    1145    1146    1150    1153    1154
    1170    1144    1145    1146    1147    1149    1150    1151    1152    1153
    1154    1155    1170    1171    1176    1178    1179    1145    1146    1147
    1148    1149    1150    1151    1152    1153    1154    1170    1171    1172
    1174    1175    1176    1177    1203    1146    1147    1149    1150    1151
    1152    1153    1170    1176    1147    1148    1149    1150    1151    1152
    1153    1154    1170    1171    1172    1173    1174    1175    1176    1148
    1149    1150    1151    1152    1153    1170    1171    1172    1173    1174
    1175    1176    1149    1150    1152    1170    1172    1173    1174    1175
    1150    1151    1152    1170    1172    1173    1174    1175    1176    1177
    1203    1151    1152    1153    1170    1172    1174    1175    1176    1177
    1202    1203    1228    1174    1175    1176    1177    1201    1202    1203
    1204    1227    1228    1153    1170    1171    1172    1154    1155    1156
    1170    1171    1178    1179    1180    1181    1155    1156    1157    1170
    1171    1178    1179    1180    1181    1182    1183    1156    1157    1158
    1170    1178    1179    1180    1181    1182    1183    1184    1185    1157
    1158    1159    1178    1179    1180    1181    1182    1183    1184    1185
    1158    1159    1160    1168    1180    1181    1182    1183    1184    1185
    1186    1159    1160    1161    1162    1166    1168    1169    1182    1183
    1184    1185    1186    1187    1195    1160    1161    1162    1163    1165
    1166    1167    1168    1169    1184    1185    1186    1187    1188    1189
    1193    1195    1196    1161    1162    1163    1164    1165    1166    1168
    1169    1186    1187    1188    1189    1190    1191    1195    1162    1163
    1165    1168    1186    1187    1188    1189    1163    1164    1165    1166
    1167    1168    1186    1187    1188    1189    1190    1191    1192    1193
    1164    1165    1166    1187    1189    1190    1191    1192    1165    1189
    1190    1191    1192    1166    1167    1168    1169    1187    1189    1190
    1191    1193    1194    1195    1167    1168    1169    1186    1189    1193
    1194    1195    1196    1168    1169    1193    1194    1195    1169    1186
    1187    1193    1194    1195    1196    1186    1193    1195    1196    1171
    1172    1178    1179       0    1173    1174    1175       0    1175    1176
    1176    1177    1203    1202    1203    1228    1179    1180    1181    1180
    1181    1181    1182    1183    1182    1183    1183    1184    1185    1184
    1185    1185       0    1187    1195    1188    1189       0    1190    1191
    1191    1192    1192       0    1194    1195       0    1196       0    1198
    1199    1200    1201    1205    1208    1209    1225    1199    1200    1201
    1202    1204    1205    1206    1207    1208    1209    1210    1225    1226
    1231    1233    1234    1200    1201    1202    1203    1204    1205    1206
    1207    1208    1209    1225    1226    1227    1229    1230    1231    1232
    1258    1201    1202    1204    1205    1206    1207    1208    1225    1231
    1202    1203    1204    1205    1206    1207    1208    1209    1225    1226
    1227    1228    1229    1230    1231    1203    1204    1205    1206    1207
    1208    1225    1226    1227    1228    1229    1230    1231    1204    1205
    1207    1225    1227    1228    1229    1230    1205    1206    1207    1225
    1227    1228    1229    1230    1231    1232    1258    1206    1207    1208
    1225    1227    1229    1230    1231    1232    1257    1258    1283    1229
    1230    1231    1232    1256    1257    1258    1259    1282    1283    1208
    1225    1226    1227    1209    1210    1211    1225    1226    1233    1234
    1235    1236    1210    1211    1212    1225    1226    1233    1234    1235
    1236    1237    1238    1211    1212    1213    1225    1233    1234    1235
    1236    1237    1238    1239    1240    1212    1213    1214    1233    1234
    1235    1236    1237    1238    1239    1240    1213    1214    1215    1223
    1235    1236    1237    1238    1239    1240    1241    1214    1215    1216
    1217    1221    1223    1224    1237    1238    1239    1240    1241    1242
    1250    1215    1216    1217    1218    1220    1221    1222    1223    1224
    1239    1240    1241    1242    1243    1244    1248    1250    1251    1216
    1217    1218    1219    1220    1221    1223    1224    1241    1242    1243
    1244    1245    1246    1250    1217    1218    1220    1223    1241    1242
    1243    1244    1218    1219    1220    1221    1222    1223    1241    1242
    1243    1244    1245    1246    1247    1248    1219    1220    1221    1242
    1244    1245    1246    1247    1220    1244    1245    1246    1247    1221
    1222    1223    1224    1242    1244    1245    1246    1248    1249    1250
    1222    1223    1224    1241    1244    1248    1249    1250    1251    1223
    1224    1248    1249    1250    1224    1241    1242    1248    1249    1250
    1251    1241    1248    1250    1251    1226    1227    1233    1234       0
    1228    1229    1230       0    1230    1231    1231    1232    1258    1257
    1258    1283    1234    1235    1236    1235    1236    1236    1237    1238
    1237    1238    1238    1239    1240    1239    1240    1240       0    1242
    1250    1243    1244       0    1245    1246    1246    1247    1247       0
    1249    1250       0    1251       0    1253    1254    1255    1256    1260
    1263    1264    1280    1254    1255    1256    1257    1259    1260    1261
    1262    1263    1264    1265    1280    1281    1286    1288    1289    1255
    1256    1257    1258    1259    1260    1261    1262    1263    1264    1280
    1281    1282    1284    1285    1286    1287    1313    1256    1257    1259
    1260    1261    1262    1263    1280    1286    1257    1258    1259    1260
    1261    1262    1263    1264    1280    1281    1282    1283    1284    1285
    1286    1258    1259    1260    1261    1262    1263    1280    1281    1282
    1283    1284    1285    1286    1259    1260    1262    1280    1282    1283
    1284    1285    1260    1261    1262    1280    1282    1283    1284    1285
    1286    1287    1313    1261    1262    1263    1280    1282    1284    1285
    1286    1287    1312    1313    1338    1284    1285    1286    1287    1311
    1312    1313    1314    1337    1338    1263    1280    1281    1282    1264
    1265    1266    1280    1281    1288    1289    1290    1291    1265    1266
    1267    1280    1281    1288    1289    1290    1291    1292    1293    1266
    1267    1268    1280    1288    1289    1290    1291    1292    1293    1294
    1295    1267    1268    1269    1288    1289    1290    1291    1292    1293
    1294    1295    1268    1269    1270    1278    1290    1291    1292    1293
    1294    1295    1296    1269    1270    1271    1272    1276    1278    1279
    1292    1293    1294    1295    1296    1297    1305    1270    1271    1272
    1273    1275    1276    1277    1278    1279    1294    1295    1296    1297
    1298    1299    1303    1305    1306    1271    1272    1273    1274    1275
    1276    1278    1279    1296    1297    1298    1299    1300    1301    1305
    1272    1273    1275    1278    1296    1297    1298    1299    1273    1274
    1275    1276    1277    1278    1296    1297    1298    1299    1300    1301
    1302    1303    1274    1275    1276    1297    1299    1300    1301    1302
    1275    1299    1300    1301    1302    1276    1277    1278    1279    1297
    1299    1300    1301    1303    1304    1305    1277    1278    1279    1296
    1299    1303    1304    1305    1306    1278    1279    1303    1304    1305
    1279    1296    1297    1303    1304    1305    1306    1296    1303    1305
    1306    1281    1282    1288    1289       0    1283    1284    1285       0
    1285    1286    1286    1287    1313    1312    1313    1338    1289    1290
    1291    1290    1291    1291    1292    1293    1292    1293    1293    1294
    1295    1294    1295    1295       0    1297    1305    1298    1299       0
    1300    1301    1301    1302    1302       0    1304    1305       0    1306
       0    1308    1309    1310    1311    1315    1318    1319    1335    1309
    1310    1311    1312    1314    1315    1316    1317    1318    1319    1320
    1335    1336    1341    1343    1344    1310    1311    1312    1313    1314
    1315    1316    1317    1318    1319    1335    1336    1337    1339    1340
    1341    1342    1368    1311    1312    1314    1315    1316    1317    1318
    1335    1341    1312    1313    1314    1315    1316    1317    1318    1319
    1335    1336    1337    1338    1339    1340    1341    1313    1314    1315
    1316    1317    1318    1335    1336    1337    1338    1339    1340    1341
    1314    1315    1317    1335    1337    1338    1339    1340    1315    1316
    1317    1335    1337    1338    1339    1340    1341    1342    1368    1316
    1317    1318    1335    1337    1339    1340    1341    1342    1367    1368
    1393    1339    1340    1341    1342    1366    1367    1368    1369    1392
    1393    1318    1335    1336    1337    1319    1320    1321    1335    1336
    1343    1344    1345    1346    1320    1321    1322    1335    1336    1343
    1344    1345    1346    1347    1348    1321    1322    1323    1335    1343
    1344    1345    1346    1347    1348    1349    1350    1322    1323    1324
    1343    1344    1345    1346    1347    1348    1349    1350    1323    1324
    1325    1333    1345    1346    1347    1348    1349    1350    1351    1324
    1325    1326    1327    1331    1333    1334    1347    1348    1349    1350
    1351    1352    1360    1325    1326    1327    1328    1330    1331    1332
    1333    1334    1349    1350    1351    1352    1353    1354    1358    1360
    1361    1326    1327    1328    1329    1330    1331    1333    1334    1351
    1352    1353    1354    1355    1356    1360    1327    1328    1330    1333
    1351    1352    1353    1354    1328    1329    1330    1331    1332    1333
    1351    1352    1353    1354    1355    1356    1357    1358    1329    1330
    1331    1352    1354    1355    1356    1357    1330    1354    1355    1356
    1357    1331    1332    1333    1334    1352    1354    1355    1356    1358
    1359    1360    1332    1333    1334    1351    1354    1358    1359    1360
    1361    1333    1334    1358    1359    1360    1334    1351    1352    1358
    1359    1360    1361    1351    1358    1360    1361    1336    1337    1343
    1344       0    1338    1339    1340       0    1340    1341    1341    1342
    1368    1367    1368    1393    1344    1345    1346    1345    1346    1346
    1347    1348    1347    1348    1348    1349    1350    1349    1350    1350
       0    1352    1360    1353    1354       0    1355    1356    1356    1357
    1357       0    1359    1360       0    1361       0    1363    1364    1365
    1366    1370    1373    1374    1390    1364    1365    1366    1367    1369
    1370    1371    1372    1373    1374    1375    1390    1391    1396    1398
    1399    1365    1366    1367    1368    1369    1370    1371    1372    1373
    1374    1390    1391    1392    1394    1395    1396    1397    1423    1366
    1367    1369    1370    1371    1372    1373    1390    1396    1367    1368
    1369    1370    1371    1372    1373    1374    1390    1391    1392    1393
    1394    1395    1396    1368    1369    1370    1371    1372    1373    1390
    1391    1392    1393    1394    1395    1396    1369    1370    1372    1390
    1392    1393    1394    1395    1370    1371    1372    1390    1392    1393
    1394    1395    1396    1397    1423    1371    1372    1373    1390    1392
    1394    1395    1396    1397    1422    1423    1448    1394    1395    1396
    1397    1421    1422    1423    1424    1447    1448    1373    1390    1391
    1392    1374    1375    1376    1390    1391    1398    1399    1400    1401
    1375    1376    1377    1390    1391    1398    1399    1400    1401    1402
    1403    1376    1377    1378    1390    1398    1399    1400    1401    1402
    1403    1404    1405    1377    1378    1379    1398    1399    1400    1401
    1402    1403    1404    1405    1378    1379    1380    1388    1400    1401
    1402    1403    1404    1405    1406    1379    1380    1381    1382    1386
    1388    1389    1402    1403    1404    1405    1406    1407    1415    1380
    1381    1382    1383    1385    1386    1387    1388    1389    1404    1405
    1406    1407    1408    1409    1413    1415    1416    1381    1382    1383
    1384    1385    1386    1388    1389    1406    1407    1408    1409    1410
    1411    1415    1382    1383    1385    1388    1406    1407    1408    1409
    1383    1384    1385    1386    1387    1388    1406    1407    1408    1409
    1410    1411    1412    1413    1384    1385    1386    1407    1409    1410
    1411    1412    1385    1409    1410    1411    1412    1386    1387    1388
    1389    1407    1409    1410    1411    1413    1414    1415    1387    1388
    1389    1406    1409    1413    1414    1415    1416    1388    1389    1413
    1414    1415    1389    1406    1407    1413    1414    1415    1416    1406
    1413    1415    1416    1391    1392    1398    1399       0    1393    1394
    1395       0    1395    1396    1396    1397    1423    1422    1423    1448
    1399    1400    1401    1400    1401    1401    1402    1403    1402    1403
    1403    1404    1405    1404    1405    1405       0    1407    1415    1408
    1409       0    1410    1411    1411    1412    1412       0    1414    1415
       0    1416       0    1418    1419    1420    1421    1425    1428    1429
    1445    1419    1420    1421    1422    1424    1425    1426    1427    1428
    1429    1430    1445    1446    1451    1453    1454    1420    1421    1422
    1423    1424    1425    1426    1427    1428    1429    1445    1446    1447
    1449    1450    1451    1452    1478    1421    1422    1424    1425    1426
    1427    1428    1445    1451    1422    1423    1424    1425    1426    1427
    1428    1429    1445    1446    1447    1448    1449    1450    1451    1423
    1424    1425    1426    1427    1428    1445    1446    1447    1448    1449
    1450    1451    1424    1425    1427    1445    1447    1448    1449    1450
    1425    1426    1427    1445    1447    1448    1449    1450    1451    1452
    1478    1426    1427    1428    1445    1447    1449    1450    1451    1452
    1477    1478    1503    1449    1450    1451    1452    1476    1477    1478
    1479    1502    1503    1428    1445    1446    1447    1429    1430    1431
    1445    1446    1453    1454    1455    1456    1430    1431    1432    1445
    1446    1453    1454    1455    1456    1457    1458    1431    1432    1433
    1445    1453    1454    1455    1456    1457    1458    1459    1460    1432
    1433    1434    1453    1454    1455    1456    1457    1458    1459    1460
    1433    1434    1435    1443    1455    1456    1457    1458    1459    1460
    1461    1434    1435    1436    1437    1441    1443    1444    1457    1458
    1459    1460    1461    1462    1470    1435    1436    1437    1438    1440
    1441    1442    1443    1444    1459    1460    1461    1462    1463    1464
    1468    1470    1471    1436    1437    1438    1439    1440    1441    1443
    1444    1461    1462    1463    1464    1465    1466    1470    1437    1438
    1440    1443    1461    1462    1463    1464    1438    1439    1440    1441
    1442    1443    1461    1462    1463    1464    1465    1466    1467    1468
    1439    1440    1441    1462    1464    1465    1466    1467    1440    1464
    1465    1466    1467    1441    1442    1443    1444    1462    1464    1465
    1466    1468    1469    1470    1442    1443    1444    1461    1464    1468
    1469    1470    1471    1443    1444    1468    1469    1470    1444    1461
    1462    1468    1469    1470    1471    1461    1468    1470    1471    1446
    1447    1453    1454       0    1448    1449    1450       0    1450    1451
    1451    1452    1478    1477    1478    1503    1454    1455    1456    1455
    1456    1456    1457    1458    1457    1458    1458    1459    1460    1459
    1460    1460       0    1462    1470    1463    1464       0    1465    1466
    1466    1467    1467       0    1469    1470       0    1471       0    1473
    1474    1475    1476    1480    1483    1484    1500    1474    1475    1476
    1477    1479    1480    1481    1482    1483    1484    1485    1500    1501
    1506    1508    1509    1475    1476    1477    1478    1479    1480    1481
    1482    1483    1484    1500    1501    1502    1504    1505    1506    1507
    1533    1476    1477    1479    1480    1481    1482    1483    1500    1506
    1477    1478    1479    1480    1481    1482    1483    1484    1500    1501
    1502    1503    1504    1505    1506    1478    1479    1480    1481    1482
    1483    1500    1501    1502    1503    1504    1505    1506    1479    1480
    1482    1500    1502    1503    1504    1505    1480    1481    1482    1500
    1502    1503    1504    1505    1506    1507    1533    1481    1482    1483
    1500    1502    1504    1505    1506    1507    1532    1533    1558    1504
    1505    1506    1507    1531    1532    1533    1534    1557    1558    1483
    1500    1501    1502    1484    1485    1486    1500    1501    1508    1509
    1510    1511    1485    1486    1487    1500    1501    1508    1509    1510
    1511    1512    1513    1486    1487    1488    1500    1508    1509    1510
    1511    1512    1513    1514    1515    1487    1488    1489    1508    1509
    1510    1511    1512    1513    1514    1515    1488    1489    1490    1498
    1510    1511    1512    1513    1514    1515    1516    1489    1490    1491
    1492    1496    1498    1499    1512    1513    1514    1515    1516    1517
    1525    1490    1491    1492    1493    1495    1496    1497    1498    1499
    1514    1515    1516    1517    1518    1519    1523    1525    1526    1491
    1492    1493    1494    1495    1496    1498    1499    1516    1517    1518
    1519    1520    1521    1525    1492    1493    1495    1498    1516    1517
    1518    1519    1493    1494    1495    1496    1497    1498    1516    1517
    1518    1519    1520    1521    1522    1523    1494    1495    1496    1517
    1519    1520    1521    1522    1495    1519    1520    1521    1522    1496
    1497    1498    1499    1517    1519    1520    1521    1523    1524    1525
    1497    1498    1499    1516    1519    1523    1524    1525    1526    1498
    1499    1523    1524    1525    1499    1516    1517    1523    1524    1525
    1526    1516    1523    1525    1526    1501    1502    1508    1509       0
    1503    1504    1505       0    1505    1506    1506    1507    1533    1532
    1533    1558    1509    1510    1511    1510    1511    1511    1512    1513
    1512    1513    1513    1514    1515    1514    1515    1515       0    1517
    1525    1518    1519       0    1520    1521    1521    1522    1522       0
    1524    1525       0    1526       0    1528    1529    1530    1531    1535
    1538    1539    1555    1529    1530    1531    1532    1534    1535    1536
    1537    1538    1539    1540    1555    1556    1561    1563    1564    1530
    1531    1532    1533    1534    1535    1536    1537    1538    1539    1555
    1556    1557    1559    1560    1561    1562    1588    1531    1532    1534
    1535    1536    1537    1538    1555    1561    1532    1533    1534    1535
    1536    1537    1538    1539    1555    1556    1557    1558    1559    1560
    1561    1533    1534    1535    1536    1537    1538    1555    1556    1557
    1558    1559    1560    1561    1534    1535    1537    1555    1557    1558
    1559    1560    1535    1536    1537    1555    1557    1558    1559    1560
    1561    1562    1588    1536    1537    1538    1555    1557    1559    1560
    1561    1562    1587    1588    1613    1559    1560    1561    1562    1586
    1587    1588    1589    1612    1613    1538    1555    1556    1557    1539
    1540    1541    1555    1556    1563    1564    1565    1566    1540    1541
    1542    1555    1556    1563    1564    1565    1566    1567    1568    1541
    1542    1543    1555    1563    1564    1565    1566    1567    1568    1569
    1570    1542    1543    1544    1563    1564    1565    1566    1567    1568
    1569    1570    1543    1544    1545    1553    1565    1566    1567    1568
    1569    1570    1571    1544    1545    1546    1547    1551    1553    1554
    1567    1568    1569    1570    1571    1572    1580    1545    1546    1547
    1548    1550    1551    1552    1553    1554    1569    1570    1571    1572
    1573    1574    1578    1580    1581    1546    1547    1548    1549    1550
    1551    1553    1554    1571    1572    1573    1574    1575    1576    1580
    1547    1548    1550    1553    1571    1572    1573    1574    1548    1549
    1550    1551    1552    1553    1571    1572    1573    1574    1575    1576
    1577    1578    1549    1550    1551    1572    1574    1575    1576    1577
    1550    1574    1575    1576    1577    1551    1552    1553    1554    1572
    1574    1575    1576    1578    1579    1580    1552    1553    1554    1571
    1574    1578    1579    1580    1581    1553    1554    1578    1579    1580
    1554    1571    1572    1578    1579    1580    1581    1571    1578    1580
    1581    1556    1557    1563    1564       0    1558    1559    1560       0
    1560    1561    1561    1562    1588    1587    1588    1613    1564    1565
    1566    1565    1566    1566    1567    1568    1567    1568    1568    1569
    1570    1569    1570    1570       0    1572    1580    1573    1574       0
    1575    1576    1576    1577    1577       0    1579    1580       0    1581
       0    1583    1584    1585    1586    1590    1593    1594    1610    1584
    1585    1586    1587    1589    1590    1591    1592    1593    1594    1595
    1610    1611    1616    1618    1619    1585    1586    1587    1588    1589
    1590    1591    1592    1593    1594    1610    1611    1612    1614    1615
    1616    1617    1643    1586    1587    1589    1590    1591    1592    1593
    1610    1616    1587    1588    1589    1590    1591    1592    1593    1594
    1610    1611    1612    1613    1614    1615    1616    1588    1589    1590
    1591    1592    1593    1610    1611    1612    1613    1614    1615    1616
    1589    1590    1592    1610    1612    1613    1614    1615    1590    1591
    1592    1610    1612    1613    1614    1615    1616    1617    1643    1591
    1592    1593    1610    1612    1614    1615    1616    1617    1642    1643
    1668    1614    1615    1616    1617    1641    1642    1643    1644    1667
    1668    1593    1610    1611    1612    1594    1595    1596    1610    1611
    1618    1619    1620    1621    1595    1596    1597    1610    1611    1618
    1619    1620    1621    1622    1623    1596    1597    1598    1610    1618
    1619    1620    1621    1622    1623    1624    1625    1597    1598    1599
    1618    1619    1620    1621    1622    1623    1624    1625    1598    1599
    1600    1608    1620    1621    1622    1623    1624    1625    1626    1599
    1600    1601    1602    1606    1608    1609    1622    1623    1624    1625
    1626    1627    1635    1600    1601    1602    1603    1605    1606    1607
    1608    1609    1624    1625    1626    1627    1628    1629    1633    1635
    1636    1601    1602    1603    1604    1605    1606    1608    1609    1626
    1627    1628    1629    1630    1631    1635    1602    1603    1605    1608
    1626    1627    1628    1629    1603    1604    1605    1606    1607    1608
    1626    1627    1628    1629    1630    1631    1632    1633    1604    1605
    1606    1627    1629    1630    1631    1632    1605    1629    1630    1631
    1632    1606    1607    1608    1609    1627    1629    1630    1631    1633
    1634    1635    1607    1608    1609    1626    1629    1633    1634    1635
    1636    1608    1609    1633    1634    1635    1609    1626    1627    1633
    1634    1635    1636    1626    1633    1635    1636    1611    1612    1618
    1619       0    1613    1614    1615       0    1615    1616    1616    1617
    1643    1642    1643    1668    1619    1620    1621    1620    1621    1621
    1622    1623    1622    1623    1623    1624    1625    1624    1625    1625
       0    1627    1635    1628    1629       0    1630    1631    1631    1632
    1632       0    1634    1635       0    1636       0    1638    1639    1640
    1641    1645    1648    1649    1665    1639    1640    1641    1642    1644
    1645    1646    1647    1648    1649    1650    1665    1666    1671    1673
    1674    1640    1641    1642    1643    1644    1645    1646    1647    1648
    1649    1665    1666    1667    1669    1670    1671    1672    1692    1641
    1642    1644    1645    1646    1647    1648    1665    1671    1642    1643
    1644    1645    1646    1647    1648    1649    1665    1666    1667    1668
    1669    1670    1671    1643    1644    1645    1646    1647    1648    1665
    1666    1667    1668    1669    1670    1671    1644    1645    1647    1665
    1667    1668    1669    1670    1645    1646    1647    1665    1667    1668
    1669    1670    1671    1672    1692    1646    1647    1648    1665    1667
    1669    1670    1671    1672    1692    1693    1694    1669    1670    1671
    1672    1692    1693    1694    1648    1665    1666    1667    1649    1650
    1651    1665    1666    1673    1674    1675    1676    1650    1651    1652
    1665    1666    1673    1674    1675    1676    1677    1678    1651    1652
    1653    1665    1673    1674    1675    1676    1677    1678    1679    1680
    1652    1653    1654    1673    1674    1675    1676    1677    1678    1679
    1680    1653    1654    1655    1663    1675    1676    1677    1678    1679
    1680    1681    1654    1655    1656    1657    1661    1663    1664    1677
    1678    1679    1680    1681    1682    1690    1655    1656    1657    1658
    1660    1661    1662    1663    1664    1679    1680    1681    1682    1683
    1684    1688    1690    1691    1656    1657    1658    1659    1660    1661
    1663    1664    1681    1682    1683    1684    1685    1686    1690    1657
    1658    1660    1663    1681    1682    1683    1684    1658    1659    1660
    1661    1662    1663    1681    1682    1683    1684    1685    1686    1687
    1688    1659    1660    1661    1682    1684    1685    1686    1687    1660
    1684    1685    1686    1687    1661    1662    1663    1664    1682    1684
    1685    1686    1688    1689    1690    1662    1663    1664    1681    1684
    1688    1689    1690    1691    1663    1664    1688    1689    1690    1664
    1681    1682    1688    1689    1690    1691    1681    1688    1690    1691
    1666    1667    1673    1674       0    1668    1669    1670       0    1670
    1671    1671    1672    1692    1692    1693    1694    1674    1675    1676
    1675    1676    1676    1677    1678    1677    1678    1678    1679    1680
    1679    1680    1680       0    1682    1690    1683    1684       0    1685
    1686    1686    1687    1687       0    1689    1690       0    1691       0
    1693    1694    1694       0    1696    1697    1697       0    1699    1700
    1700       0    1702    1703    1703       0    1705    1706    1706       0
    1708    1709    1709       0    1711    1712    1712       0    1714    1715
    1715       0    1717    1718    1718       0    1720    1721    1721       0
    1723    1724    1724       0    1726    1727    1727       0    1729    1730
    1730       0    1732    1733    1733       0    1735    1736    1736       0
    1738    1739    1739       0    1741    1742    1742       0    1744    1745
    1745       0    1747    1748    1748       0    1750    1751    1751       0
    1753    1754    1754       0    1756    1757    1757       0    1759    1760
    1760       0    1762    1763    1763       0    1765    1766    1766       0
    1768    1769    1769       0    1771    1772    1772       0    1774    1775
    1775       0    1777    1778    1778       0    1780    1781    1781       0
    1783    1784    1784       0    1786    1787    1787       0    1789    1790
    1790       0    1792    1793    1793       0    1795    1796    1796       0
    1798    1799    1799       0    1801    1802    1802       0    1804    1805
    1805       0    1807    1808    1808       0    1810    1811    1811       0
    1813    1814    1814       0    1816    1817    1817       0    1819    1820
    1820       0    1822    1823    1823       0    1825    1826    1826       0
    1828    1829    1829       0    1831    1832    1832       0    1834    1835
    1835       0    1837    1838    1838       0    1840    1841    1841       0
    1843    1844    1844       0    1846    1847    1847       0    1849    1850
    1850       0    1852    1853    1853       0    1855    1856    1856       0
    1858    1859    1859       0    1861    1862    1862       0    1864    1865
    1865       0    1867    1868    1868       0    1870    1871    1871       0
    1873    1874    1874       0    1876    1877    1877       0    1879    1880
    1880       0    1882    1883    1883       0    1885    1886    1886       0
    1888    1889    1889       0    1891    1892    1892       0    1894    1895
    1895       0    1897    1898    1898       0    1900    1901    1901       0
    1903    1904    1904       0    1906    1907    1907       0    1909    1910
    1910       0    1912    1913    1913       0    1915    1916    1916       0
    1918    1919    1919       0    1921    1922    1922       0    1924    1925
    1925       0    1927    1928    1928       0    1930    1931    1931       0
    1933    1934    1934       0    1936    1937    1937       0    1939    1940
    1940       0    1942    1943    1943       0    1945    1946    1946       0
    1948    1949    1949       0    1951    1952    1952       0    1954    1955
    1955       0    1957    1958    1958       0    1960    1961    1961       0
    1963    1964    1964       0    1966    1967    1967       0    1969    1970
    1970       0    1972    1973    1973       0    1975    1976    1976       0
    1978    1979    1979       0    1981    1982    1982       0    1984    1985
    1985       0    1987    1988    1988       0    1990    1991    1991       0
    1993    1994    1994       0    1996    1997    1997       0    1999    2000
    2000       0    2002    2003    2003       0    2005    2006    2006       0
    2008    2009    2009       0    2011    2012    2012       0    2014    2015
    2015       0    2017    2018    2018       0    2020    2021    2021       0
    2023    2024    2024       0    2026    2027    2027       0    2029    2030
    2030       0    2032    2033    2033       0    2035    2036    2036       0
    2038    2039    2039       0    2041    2042    2042       0    2044    2045
    2045       0    2047    2048    2048       0    2050    2051    2051       0
    2053    2054    2054       0    2056    2057    2057       0    2059    2060
    2060       0    2062    2063    2063       0    2065    2066    2066       0
    2068    2069    2069       0    2071    2072    2072       0    2074    2075
    2075       0    2077    2078    2078       0    2080    2081    2081       0
    2083    2084    2084       0    2086    2087    2087       0    2089    2090
    2090       0    2092    2093    2093       0    2095    2096    2096       0
    2098    2099    2099       0    2101    2102    2102       0    2104    2105
    2105       0    2107    2108    2108       0    2110    2111    2111       0
    2113    2114    2114       0    2116    2117    2117       0    2119    2120
    2120       0    2122    2123    2123       0    2125    2126    2126       0
    2128    2129    2129       0    2131    2132    2132       0    2134    2135
    2135       0    2137    2138    2138       0    2140    2141    2141       0
    2143    2144    2144       0    2146    2147    2147       0    2149    2150
    2150       0    2152    2153    2153       0    2155    2156    2156       0
    2158    2159    2159       0    2161    2162    2162       0    2164    2165
    2165       0    2167    2168    2168       0    2170    2171    2171       0
    2173    2174    2174       0    2176    2177    2177       0    2179    2180
    2180       0    2182    2183    2183       0    2185    2186    2186       0
    2188    2189    2189       0    2191    2192    2192       0    2194    2195
    2195       0    2197    2198    2198       0    2200    2201    2201       0
    2203    2204    2204       0    2206    2207    2207       0    2209    2210
    2210       0    2212    2213    2213       0    2215    2216    2216       0
    2218    2219    2219       0    2221    2222    2222       0    2224    2225
    2225       0    2227    2228    2228       0    2230    2231    2231       0
    2233    2234    2234       0    2236    2237    2237       0    2239    2240
    2240       0    2242    2243    2243       0    2245    2246    2246       0
    2248    2249    2249       0    2251    2252    2252       0    2254    2255
    2255       0    2257    2258    2258       0    2260    2261    2261       0
    2263    2264    2264       0    2266    2267    2267       0    2269    2270
    2270       0    2272    2273    2273       0    2275    2276    2276       0
    2278    2279    2279       0    2281    2282    2282       0    2284    2285
    2285       0    2287    2288    2288       0    2290    2291    2291       0
    2293    2294    2294       0    2296    2297    2297       0    2299    2300
    2300       0    2302    2303    2303       0    2305    2306    2306       0
    2308    2309    2309       0    2311    2312    2312       0    2314    2315
    2315       0    2317    2318    2318       0    2320    2321    2321       0
    2323    2324    2324       0    2326    2327    2327       0    2329    2330
    2330       0    2332    2333    2333       0    2335    2336    2336       0
    2338    2339    2339       0    2341    2342    2342       0    2344    2345
    2345       0    2347    2348    2348       0    2350    2351    2351       0
    2353    2354    2354       0    2356    2357    2357       0    2359    2360
    2360       0    2362    2363    2363       0    2365    2366    2366       0
    2368    2369    2369       0    2371    2372    2372       0    2374    2375
    2375       0    2377    2378    2378       0    2380    2381    2381       0
    2383    2384    2384       0    2386    2387    2387       0    2389    2390
    2390       0    2392    2393    2393       0    2395    2396    2396       0
    2398    2399    2399       0    2401    2402    2402       0    2404    2405
    2405       0    2407    2408    2408       0    2410    2411    2411       0
    2413    2414    2414       0    2416    2417    2417       0    2419    2420
    2420       0    2422    2423    2423       0    2425    2426    2426       0
    2428    2429    2429       0    2431    2432    2432       0    2434    2435
    2435       0    2437    2438    2438       0    2440    2441    2441       0
    2443    2444    2444       0    2446    2447    2447       0    2449    2450
    2450       0    2452    2453    2453       0    2455    2456    2456       0
    2458    2459    2459       0    2461    2462    2462       0    2464    2465
    2465       0    2467    2468    2468       0    2470    2471    2471       0
    2473    2474    2474       0    2476    2477    2477       0    2479    2480
    2480       0    2482    2483    2483       0    2485    2486    2486       0
    2488    2489    2489       0    2491    2492    2492       0    2494    2495
    2495       0    2497    2498    2498       0    2500    2501    2501       0
    2503    2504    2504       0    2506    2507    2507       0    2509    2510
    2510       0    2512    2513    2513       0    2515    2516    2516       0
    2518    2519    2519       0    2521    2522    2522       0    2524    2525
    2525       0    2527    2528    2528       0    2530    2531    2531       0
    2533    2534    2534       0    2536    2537    2537       0    2539    2540
    2540       0    2542    2543    2543       0    2545    2546    2546       0
    2548    2549    2549       0    2551    2552    2552       0    2554    2555
    2555       0    2557    2558    2558       0    2560    2561    2561       0
    2563    2564    2564       0    2566    2567    2567       0    2569    2570
    2570       0    2572    2573    2573       0    2575    2576    2576       0
    2578    2579    2579       0    2581    2582    2582       0    2584    2585
    2585       0    2587    2588    2588       0    2590    2591    2591       0
    2593    2594    2594       0    2596    2597    2597       0    2599    2600
    2600       0    2602    2603    2603       0    2605    2606    2606       0
    2608    2609    2609       0    2611    2612    2612       0    2614    2615
    2615       0    2617    2618    2618       0    2620    2621    2621       0
    2623    2624    2624       0    2626    2627    2627       0    2629    2630
    2630       0    2632    2633    2633       0    2635    2636    2636       0
    2638    2639    2639       0    2641    2642    2642       0    2644    2645
    2645       0    2647    2648    2648       0    2650    2651    2651       0
    2653    2654    2654       0    2656    2657    2657       0    2659    2660
    2660       0    2662    2663    2663       0    2665    2666    2666       0
    2668    2669    2669       0    2671    2672    2672       0    2674    2675
    2675       0    2677    2678    2678       0    2680    2681    2681       0
    2683    2684    2684       0    2686    2687    2687       0    2689    2690
    2690       0    2692    2693    2693       0    2695    2696    2696       0
    2698    2699    2699       0    2701    2702    2702       0    2704    2705
    2705       0    2707    2708    2708       0    2710    2711    2711       0
    2713    2714    2714       0    2716    2717    2717       0    2719    2720
    2720       0    2722    2723    2723       0    2725    2726    2726       0
    2728    2729    2729       0    2731    2732    2732       0    2734    2735
    2735       0    2737    2738    2738       0    2740    2741    2741       0
    2743    2744    2744       0    2746    2747    2747       0    2749    2750
    2750       0    2752    2753    2753       0    2755    2756    2756       0
    2758    2759    2759       0    2761    2762    2762       0    2764    2765
    2765       0    2767    2768    2768       0    2770    2771    2771       0
    2773    2774    2774       0    2776    2777    2777       0    2779    2780
    2780       0    2782    2783    2783       0    2785    2786    2786       0
    2788    2789    2789       0    2791    2792    2792       0    2794    2795
    2795       0    2797    2798    2798       0    2800    2801    2801       0
    2803    2804    2804       0    2806    2807    2807       0    2809    2810
    2810       0    2812    2813    2813       0    2815    2816    2816       0
    2818    2819    2819       0    2821    2822    2822       0    2824    2825
    2825       0    2827    2828    2828       0    2830    2831    2831       0
    2833    2834    2834       0    2836    2837    2837       0    2839    2840
    2840       0    2842    2843    2843       0    2845    2846    2846       0
    2848    2849    2849       0    2851    2852    2852       0    2854    2855
    2855       0    2857    2858    2858       0    2860    2861    2861       0
    2863    2864    2864       0    2866    2867    2867       0    2869    2870
    2870       0    2872    2873    2873       0    2875    2876    2876       0
    2878    2879    2879       0    2881    2882    2882       0    2884    2885
    2885       0    2887    2888    2888       0    2890    2891    2891       0
    2893    2894    2894       0    2896    2897    2897       0    2899    2900
    2900       0    2902    2903    2903       0    2905    2906    2906       0
    2908    2909    2909       0    2911    2912    2912       0    2914    2915
    2915       0    2917    2918    2918       0    2920    2921    2921       0
    2923    2924    2924       0    2926    2927    2927       0    2929    2930
    2930       0    2932    2933    2933       0    2935    2936    2936       0
    2938    2939    2939       0    2941    2942    2942       0    2944    2945
    2945       0    2947    2948    2948       0    2950    2951    2951       0
    2953    2954    2954       0    2956    2957    2957       0    2959    2960
    2960       0    2962    2963    2963       0    2965    2966    2966       0
    2968    2969    2969       0    2971    2972    2972       0    2974    2975
    2975       0    2977    2978    2978       0    2980    2981    2981       0
    2983    2984    2984       0    2986    2987    2987       0    2989    2990
    2990       0    2992    2993    2993       0    2995    2996    2996       0
    2998    2999    2999       0    3001    3002    3002       0    3004    3005
    3005       0    3007    3008    3008       0    3010    3011    3011       0
    3013    3014    3014       0    3016    3017    3017       0    3019    3020
    3020       0    3022    3023    3023       0    3025    3026    3026       0
    3028    3029    3029       0    3031    3032    3032       0    3034    3035
    3035       0    3037    3038    3038       0    3040    3041    3041       0
    3043    3044    3044       0    3046    3047    3047       0    3049    3050
    3050       0    3052    3053    3053       0    3055    3056    3056       0
    3058    3059    3059       0    3061    3062    3062       0    3064    3065
    3065       0    3067    3068    3068       0    3070    3071    3071       0
    3073    3074    3074       0    3076    3077    3077       0    3079    3080
    3080       0    3082    3083    3083       0    3085    3086    3086       0
    3088    3089    3089       0    3091    3092    3092       0    3094    3095
    3095       0    3097    3098    3098       0    3100    3101    3101       0
    3103    3104    3104       0    3106    3107    3107       0    3109    3110
    3110       0    3112    3113    3113       0    3115    3116    3116       0
    3118    3119    3119       0    3121    3122    3122       0    3124    3125
    3125       0    3127    3128    3128       0    3130    3131    3131       0
    3133    3134    3134       0    3136    3137    3137       0    3139    3140
    3140       0    3142    3143    3143       0    3145    3146    3146       0
    3148    3149    3149       0    3151    3152    3152       0    3154    3155
    3155       0    3157    3158    3158       0    3160    3161    3161       0
    3163    3164    3164       0    3166    3167    3167       0    3169    3170
    3170       0    3172    3173    3173       0    3175    3176    3176       0
    3178    3179    3179       0    3181    3182    3182       0    3184    3185
    3185       0    3187    3188    3188       0    3190    3191    3191       0
    3193    3194    3194       0    3196    3197    3197       0    3199    3200
    3200       0    3202    3203    3203       0    3205    3206    3206       0
    3208    3209    3209       0    3211    3212    3212       0    3214    3215
    3215       0    3217    3218    3218       0    3220    3221    3221       0
    3223    3224    3224       0    3226    3227    3227       0    3229    3230
    3230       0    3232    3233    3233       0    3235    3236    3236       0
    3238    3239    3239       0    3241    3242    3242       0    3244    3245
    3245       0    3247    3248    3248       0    3250    3251    3251       0
    3253    3254    3254       0    3256    3257    3257       0    3259    3260
    3260       0    3262    3263    3263       0    3265    3266    3266       0
    3268    3269    3269       0    3271    3272    3272       0    3274    3275
    3275       0    3277    3278    3278       0    3280    3281    3281       0
    3283    3284    3284       0    3286    3287    3287       0    3289    3290
    3290       0    3292    3293    3293       0    3295    3296    3296       0
    3298    3299    3299       0    3301    3302    3302       0    3304    3305
    3305       0    3307    3308    3308       0    3310    3311    3311       0
    3313    3314    3314       0    3316    3317    3317       0    3319    3320
    3320       0    3322    3323    3323       0    3325    3326    3326       0
    3328    3329    3329       0    3331    3332    3332       0    3334    3335
    3335       0    3337    3338    3338       0    3340    3341    3341       0
    3343    3344    3344       0    3346    3347    3347       0    3349    3350
    3350       0    3352    3353    3353       0    3355    3356    3356       0
    3358    3359    3359       0    3361    3362    3362       0    3364    3365
    3365       0    3367    3368    3368       0    3370    3371    3371       0
    3373    3374    3374       0    3376    3377    3377       0    3379    3380
    3380       0    3382    3383    3383       0    3385    3386    3386       0
    3388    3389    3389       0    3391    3392    3392       0    3394    3395
    3395       0    3397    3398    3398       0    3400    3401    3401       0
    3403    3404    3404       0    3406    3407    3407       0    3409    3410
    3410       0    3412    3413    3413       0    3415    3416    3416       0
    3418    3419    3419       0    3421    3422    3422       0    3424    3425
    3425       0    3427    3428    3428       0    3430    3431    3431       0
    3433    3434    3434       0    3436    3437    3437       0    3439    3440
    3440       0    3442    3443    3443       0    3445    3446    3446       0
    3448    3449    3449       0    3451    3452    3452       0    3454    3455
    3455       0    3457    3458    3458       0    3460    3461    3461       0
    3463    3464    3464       0    3466    3467    3467       0    3469    3470
    3470       0    3472    3473    3473       0    3475    3476    3476       0
    3478    3479    3479       0    3481    3482    3482       0    3484    3485
    3485       0    3487    3488    3488       0    3490    3491    3491       0
    3493    3494    3494       0    3496    3497    3497       0    3499    3500
    3500       0    3502    3503    3503       0    3505    3506    3506       0
    3508    3509    3509       0    3511    3512    3512       0    3514    3515
    3515       0    3517    3518    3518       0    3520    3521    3521       0
    3523    3524    3524       0    3526    3527    3527       0    3529    3530
    3530       0    3532    3533    3533       0    3535    3536    3536       0
    3538    3539    3539       0    3541    3542    3542       0    3544    3545
    3545       0    3547    3548    3548       0    3550    3551    3551       0
    3553    3554    3554       0    3556    3557    3557       0    3559    3560
    3560       0    3562    3563    3563       0    3565    3566    3566       0
    3568    3569    3569       0    3571    3572    3572       0    3574    3575
    3575       0    3577    3578    3578       0    3580    3581    3581       0
    3583    3584    3584       0    3586    3587    3587       0    3589    3590
    3590       0    3592    3593    3593       0    3595    3596    3596       0
    3598    3599    3599       0    3601    3602    3602       0    3604    3605
    3605       0    3607    3608    3608       0    3610    3611    3611       0
    3613    3614    3614       0    3616    3617    3617       0    3619    3620
    3620       0    3622    3623    3623       0    3625    3626    3626       0
    3628    3629    3629       0    3631    3632    3632       0    3634    3635
    3635       0    3637    3638    3638       0    3640    3641    3641       0
    3643    3644    3644       0    3646    3647    3647       0    3649    3650
    3650       0    3652    3653    3653       0    3655    3656    3656       0
    3658    3659    3659       0    3661    3662    3662       0    3664    3665
    3665       0    3667    3668    3668       0    3670    3671    3671       0
    3673    3674    3674       0    3676    3677    3677       0    3679    3680
    3680       0    3682    3683    3683       0    3685    3686    3686       0
    3688    3689    3689       0    3691    3692    3692       0    3694    3695
    3695       0    3697    3698    3698       0    3700    3701    3701       0
    3703    3704    3704       0    3706    3707    3707       0    3709    3710
    3710       0    3712    3713    3713       0    3715    3716    3716       0
    3718    3719    3719       0    3721    3722    3722       0    3724    3725
    3725       0    3727    3728    3728       0    3730    3731    3731       0
    3733    3734    3734       0    3736    3737    3737       0    3739    3740
    3740       0    3742    3743    3743       0    3745    3746    3746       0
    3748    3749    3749       0    3751    3752    3752       0    3754    3755
    3755       0    3757    3758    3758       0    3760    3761    3761       0
    3763    3764    3764       0    3766    3767    3767       0    3769    3770
    3770       0    3772    3773    3773       0    3775    3776    3776       0
    3778    3779    3779       0    3781    3782    3782       0    3784    3785
    3785       0    3787    3788    3788       0    3790    3791    3791       0
    3793    3794    3794       0    3796    3797    3797       0    3799    3800
    3800       0    3802    3803    3803       0    3805    3806    3806       0
    3808    3809    3809       0    3811    3812    3812       0    3814    3815
    3815       0    3817    3818    3818       0    3820    3821    3821       0
    3823    3824    3824       0    3826    3827    3827       0    3829    3830
    3830       0    3832    3833    3833       0    3835    3836    3836       0
    3838    3839    3839       0    3841    3842    3842       0    3844    3845
    3845       0    3847    3848    3848       0    3850    3851    3851       0
    3853    3854    3854       0    3856    3857    3857       0    3859    3860
    3860       0    3862    3863    3863       0    3865    3866    3866       0
    3868    3869    3869       0    3871    3872    3872       0    3874    3875
    3875       0    3877    3878    3878       0    3880    3881    3881       0
    3883    3884    3884       0    3886    3887    3887       0    3889    3890
    3890       0    3892    3893    3893       0    3895    3896    3896       0
    3898    3899    3899       0    3901    3902    3902       0    3904    3905
    3905       0    3907    3908    3908       0    3910    3911    3911       0
    3913    3914    3914       0    3916    3917    3917       0    3919    3920
    3920       0    3922    3923    3923       0    3925    3926    3926       0
    3928    3929    3929       0    3931    3932    3932       0    3934    3935
    3935       0    3937    3938    3938       0    3940    3941    3941       0
    3943    3944    3944       0    3946    3947    3947       0    3949    3950
    3950       0    3952    3953    3953       0    3955    3956    3956       0
    3958    3959    3959       0    3961    3962    3962       0    3964    3965
    3965       0    3967    3968    3968       0    3970    3971    3971       0
    3973    3974    3974       0    3976    3977    3977       0    3979    3980
    3980       0    3982    3983    3983       0    3985    3986    3986       0
    3988    3989    3989       0    3991    3992    3992       0    3994    3995
    3995       0    3997    3998    3998       0    4000    4001    4001       0
    4003    4004    4004       0    4006    4007    4007       0    4009    4010
    4010       0    4012    4013    4013       0    4015    4016    4016       0
    4018    4019    4019       0    4021    4022    4022       0    4024    4025
    4025       0    4027    4028    4028       0    4030    4031    4031       0
    4033    4034    4034       0    4036    4037    4037       0    4039    4040
    4040       0    4042    4043    4043       0    4045    4046    4046       0
    4048    4049    4049       0    4051    4052    4052       0    4054    4055
    4055       0    4057    4058    4058       0    4060    4061    4061       0
    4063    4064    4064       0    4066    4067    4067       0    4069    4070
    4070       0    4072    4073    4073       0    4075    4076    4076       0
    4078    4079    4079       0    4081    4082    4082       0    4084    4085
    4085       0    4087    4088    4088       0    4090    4091    4091       0
    4093    4094    4094       0    4096    4097    4097       0    4099    4100
    4100       0    4102    4103    4103       0    4105    4106    4106       0
    4108    4109    4109       0    4111    4112    4112       0    4114    4115
    4115       0    4117    4118    4118       0    4120    4121    4121       0
    4123    4124    4124       0    4126    4127    4127       0    4129    4130
    4130       0    4132    4133    4133       0    4135    4136    4136       0
    4138    4139    4139       0    4141    4142    4142       0    4144    4145
    4145       0    4147    4148    4148       0    4150    4151    4151       0
    4153    4154    4154       0    4156    4157    4157       0    4159    4160
    4160       0    4162    4163    4163       0    4165    4166    4166       0
    4168    4169    4169       0    4171    4172    4172       0    4174    4175
    4175       0    4177    4178    4178       0    4180    4181    4181       0
    4183    4184    4184       0    4186    4187    4187       0    4189    4190
    4190       0    4192    4193    4193       0    4195    4196    4196       0
    4198    4199    4199       0    4201    4202    4202       0    4204    4205
    4205       0    4207    4208    4208       0    4210    4211    4211       0
    4213    4214    4214       0    4216    4217    4217       0    4219    4220
    4220       0    4222    4223    4223       0    4225    4226    4226       0
    4228    4229    4229       0    4231    4232    4232       0    4234    4235
    4235       0    4237    4238    4238       0    4240    4241    4241       0
    4243    4244    4244       0    4246    4247    4247       0    4249    4250
    4250       0    4252    4253    4253       0    4255    4256    4256       0
    4258    4259    4259       0    4261    4262    4262       0    4264    4265
    4265       0    4267    4268    4268       0    4270    4271    4271       0
    4273    4274    4274       0    4276    4277    4277       0    4279    4280
    4280       0    4282    4283    4283       0    4285    4286    4286       0
    4288    4289    4289       0    4291    4292    4292       0    4294    4295
    4295       0    4297    4298    4298       0    4300    4301    4301       0
    4303    4304    4304       0    4306    4307    4307       0    4309    4310
    4310       0    4312    4313    4313       0    4315    4316    4316       0
    4318    4319    4319       0    4321    4322    4322       0    4324    4325
    4325       0    4327    4328    4328       0    4330    4331    4331       0
    4333    4334    4334       0    4336    4337    4337       0    4339    4340
    4340       0    4342    4343    4343       0    4345    4346    4346       0
    4348    4349    4349       0    4351    4352    4352       0    4354    4355
    4355       0    4357    4358    4358       0    4360    4361    4361       0
    4363    4364    4364       0    4366    4367    4367       0    4369    4370
    4370       0    4372    4373    4373       0    4375    4376    4376       0
    4378    4379    4379       0    4381    4382    4382       0    4384    4385
    4385       0    4387    4388    4388       0    4390    4391    4391       0
    4393    4394    4394       0    4396    4397    4397       0    4399    4400
    4400       0    4402    4403    4403       0    4405    4406    4406       0
    4408    4409    4409       0    4411    4412    4412       0    4414    4415
    4415       0    4417    4418    4418       0    4420    4421    4421       0
    4423    4424    4424       0    4426    4427    4427       0    4429    4430
    4430       0    4432    4433    4433       0    4435    4436    4436       0
    4438    4439    4439       0    4441    4442    4442       0    4444    4445
    4445       0    4447    4448    4448       0    4450    4451    4451       0
    4453    4454    4454       0    4456    4457    4457       0    4459    4460
    4460       0    4462    4463    4463       0    4465    4466    4466       0
    4468    4469    4469       0    4471    4472    4472       0    4474    4475
    4475       0    4477    4478    4478       0    4480    4481    4481       0
    4483    4484    4484       0    4486    4487    4487       0    4489    4490
    4490       0    4492    4493    4493       0    4495    4496    4496       0
    4498    4499    4499       0    4501    4502    4502       0    4504    4505
    4505       0    4507    4508    4508       0    4510    4511    4511       0
    4513    4514    4514       0    4516    4517    4517       0    4519    4520
    4520       0    4522    4523    4523       0    4525    4526    4526       0
    4528    4529    4529       0    4531    4532    4532       0    4534    4535
    4535       0    4537    4538    4538       0    4540    4541    4541       0
    4543    4544    4544       0    4546    4547    4547       0    4549    4550
    4550       0    4552    4553    4553       0    4555    4556    4556       0
    4558    4559    4559       0    4561    4562    4562       0    4564    4565
    4565       0    4567    4568    4568       0    4570    4571    4571       0
    4573    4574    4574       0    4576    4577    4577       0    4579    4580
    4580       0    4582    4583    4583       0    4585    4586    4586       0
    4588    4589    4589       0    4591    4592    4592       0    4594    4595
    4595       0    4597    4598    4598       0    4600    4601    4601       0
    4603    4604    4604       0    4606    4607    4607       0    4609    4610
    4610       0    4612    4613    4613       0    4615    4616    4616       0
    4618    4619    4619       0    4621    4622    4622       0    4624    4625
    4625       0    4627    4628    4628       0    4630    4631    4631       0
    4633    4634    4634       0    4636    4637    4637       0    4639    4640
    4640       0    4642    4643    4643       0    4645    4646    4646       0
    4648    4649    4649       0    4651    4652    4652       0    4654    4655
    4655       0    4657    4658    4658       0    4660    4661    4661       0
    4663    4664    4664       0    4666    4667    4667       0    4669    4670
    4670       0    4672    4673    4673       0    4675    4676    4676       0
    4678    4679    4679       0    4681    4682    4682       0    4684    4685
    4685       0    4687    4688    4688       0    4690    4691    4691       0
    4693    4694    4694       0    4696    4697    4697       0    4699    4700
    4700       0    4702    4703    4703       0    4705    4706    4706       0
    4708    4709    4709       0    4711    4712    4712       0    4714    4715
    4715       0    4717    4718    4718       0    4720    4721    4721       0
    4723    4724    4724       0    4726    4727    4727       0    4729    4730
    4730       0    4732    4733    4733       0    4735    4736    4736       0
    4738    4739    4739       0    4741    4742    4742       0    4744    4745
    4745       0    4747    4748    4748       0    4750    4751    4751       0
    4753    4754    4754       0    4756    4757    4757       0    4759    4760
    4760       0    4762    4763    4763       0    4765    4766    4766       0
    4768    4769    4769       0    4771    4772    4772       0    4774    4775
    4775       0    4777    4778    4778       0    4780    4781    4781       0
    4783    4784    4784       0    4786    4787    4787       0    4789    4790
    4790       0    4792    4793    4793       0    4795    4796    4796       0
    4798    4799    4799       0    4801    4802    4802       0    4804    4805
    4805       0    4807    4808    4808       0    4810    4811    4811       0
    4813    4814    4814       0    4816    4817    4817       0    4819    4820
    4820       0    4822    4823    4823       0    4825    4826    4826       0
    4828    4829    4829       0    4831    4832    4832       0    4834    4835
    4835       0    4837    4838    4838       0    4840    4841    4841       0
    4843    4844    4844       0    4846    4847    4847       0    4849    4850
    4850       0    4852    4853    4853       0    4855    4856    4856       0
    4858    4859    4859       0    4861    4862    4862       0    4864    4865
    4865       0    4867    4868    4868       0    4870    4871    4871       0
    4873    4874    4874       0    4876    4877    4877       0    4879    4880
    4880       0    4882    4883    4883       0    4885    4886    4886       0
    4888    4889    4889       0    4891    4892    4892       0    4894    4895
    4895       0    4897    4898    4898       0    4900    4901    4901       0
    4903    4904    4904       0    4906    4907    4907       0    4909    4910
    4910       0    4912    4913    4913       0    4915    4916    4916       0
    4918    4919    4919       0    4921    4922    4922       0    4924    4925
    4925       0    4927    4928    4928       0    4930    4931    4931       0
    4933    4934    4934       0    4936    4937    4937       0    4939    4940
    4940       0    4942    4943    4943       0    4945    4946    4946       0
    4948    4949    4949       0    4951    4952    4952       0    4954    4955
    4955       0    4957    4958    4958       0    4960    4961    4961       0
    4963    4964    4964       0    4966    4967    4967       0    4969    4970
    4970       0    4972    4973    4973       0    4975    4976    4976       0
    4978    4979    4979       0    4981    4982    4982       0    4984    4985
    4985       0    4987    4988    4988       0    4990    4991    4991       0
    4993    4994    4994       0    4996    4997    4997       0    4999    5000
    5000       0    5002    5003    5003       0    5005    5006    5006       0
    5008    5009    5009       0    5011    5012    5012       0    5014    5015
    5015       0    5017    5018    5018       0    5020    5021    5021       0
    5023    5024    5024       0    5026    5027    5027       0    5029    5030
    5030       0    5032    5033    5033       0    5035    5036    5036       0
    5038    5039    5039       0    5041    5042    5042       0    5044    5045
    5045       0    5047    5048    5048       0    5050    5051    5051       0
    5053    5054    5054       0    5056    5057    5057       0    5059    5060
    5060       0    5062    5063    5063       0    5065    5066    5066       0
    5068    5069    5069       0    5071    5072    5072       0    5074    5075
    5075       0    5077    5078    5078       0    5080    5081    5081       0
    5083    5084    5084       0    5086    5087    5087       0    5089    5090
    5090       0    5092    5093    5093       0    5095    5096    5096       0
    5098    5099    5099       0    5101    5102    5102       0    5104    5105
    5105       0    5107    5108    5108       0    5110    5111    5111       0
    5113    5114    5114       0    5116    5117    5117       0    5119    5120
    5120       0    5122    5123    5123       0    5125    5126    5126       0
    5128    5129    5129       0    5131    5132    5132       0    5134    5135
    5135       0    5137    5138    5138       0    5140    5141    5141       0
    5143    5144    5144       0    5146    5147    5147       0    5149    5150
    5150       0    5152    5153    5153       0    5155    5156    5156       0
    5158    5159    5159       0    5161    5162    5162       0    5164    5165
    5165       0    5167    5168    5168       0    5170    5171    5171       0
    5173    5174    5174       0    5176    5177    5177       0    5179    5180
    5180       0    5182    5183    5183       0    5185    5186    5186       0
    5188    5189    5189       0    5191    5192    5192       0    5194    5195
    5195       0    5197    5198    5198       0    5200    5201    5201       0
    5203    5204    5204       0    5206    5207    5207       0    5209    5210
    5210       0    5212    5213    5213       0    5215    5216    5216       0
    5218    5219    5219       0    5221    5222    5222       0    5224    5225
    5225       0    5227    5228    5228       0    5230    5231    5231       0
    5233    5234    5234       0    5236    5237    5237       0    5239    5240
    5240       0    5242    5243    5243       0    5245    5246    5246       0
    5248    5249    5249       0    5251    5252    5252       0    5254    5255
    5255       0    5257    5258    5258       0    5260    5261    5261       0
    5263    5264    5264       0    5266    5267    5267       0    5269    5270
    5270       0    5272    5273    5273       0    5275    5276    5276       0
    5278    5279    5279       0    5281    5282    5282       0    5284    5285
    5285       0    5287    5288    5288       0    5290    5291    5291       0
    5293    5294    5294       0    5296    5297    5297       0    5299    5300
    5300       0    5302    5303    5303       0    5305    5306    5306       0
    5308    5309    5309       0    5311    5312    5312       0    5314    5315
    5315       0    5317    5318    5318       0    5320    5321    5321       0
    5323    5324    5324       0    5326    5327    5327       0    5329    5330
    5330       0    5332    5333    5333       0    5335    5336    5336       0
    5338    5339    5339       0    5341    5342    5342       0    5344    5345
    5345       0    5347    5348    5348       0    5350    5351    5351       0
    5353    5354    5354       0    5356    5357    5357       0    5359    5360
    5360       0    5362    5363    5363       0    5365    5366    5366       0
    5368    5369    5369       0    5371    5372    5372       0    5374    5375
    5375       0    5377    5378    5378       0    5380    5381    5381       0
    5383    5384    5384       0    5386    5387    5387       0    5389    5390
    5390       0    5392    5393    5393       0    5395    5396    5396       0
    5398    5399    5399       0    5401    5402    5402       0    5404    5405
    5405       0    5407    5408    5408       0    5410    5411    5411       0
    5413    5414    5414       0    5416    5417    5417       0    5419    5420
    5420       0    5422    5423    5423       0    5425    5426    5426       0
    5428    5429    5429       0    5431    5432    5432       0    5434    5435
    5435       0    5437    5438    5438       0    5440    5441    5441       0
    5443    5444    5444       0    5446    5447    5447       0    5449    5450
    5450       0    5452    5453    5453       0    5455    5456    5456       0
    5458    5459    5459       0    5461    5462    5462       0    5464    5465
    5465       0    5467    5468    5468       0    5470    5471    5471       0
    5473    5474    5474       0    5476    5477    5477       0    5479    5480
    5480       0    5482    5483    5483       0    5485    5486    5486       0
    5488    5489    5489       0    5491    5492    5492       0    5494    5495
    5495       0    5497    5498    5498       0    5500    5501    5501       0
    5503    5504    5504       0    5506    5507    5507       0    5509    5510
    5510       0    5512    5513    5513       0    5515    5516    5516       0
    5518    5519    5519       0    5521    5522    5522       0    5524    5525
    5525       0    5527    5528    5528       0    5530    5531    5531       0
    5533    5534    5534       0    5536    5537    5537       0    5539    5540
    5540       0    5542    5543    5543       0    5545    5546    5546       0
    5548    5549    5549       0    5551    5552    5552       0    5554    5555
    5555       0    5557    5558    5558       0    5560    5561    5561       0
    5563    5564    5564       0    5566    5567    5567       0    5569    5570
    5570       0    5572    5573    5573       0    5575    5576    5576       0
    5578    5579    5579       0    5581    5582    5582       0    5584    5585
    5585       0    5587    5588    5588       0    5590    5591    5591       0
    5593    5594    5594       0    5596    5597    5597       0    5599    5600
    5600       0    5602    5603    5603       0    5605    5606    5606       0
    5608    5609    5609       0    5611    5612    5612       0    5614    5615
    5615       0    5617    5618    5618       0    5620    5621    5621       0
    5623    5624    5624       0    5626    5627    5627       0    5629    5630
    5630       0    5632    5633    5633       0    5635    5636    5636       0
    5638    5639    5639       0    5641    5642    5642       0    5644    5645
    5645       0    5647    5648    5648       0    5650    5651    5651       0
    5653    5654    5654       0    5656    5657    5657       0    5659    5660
    5660       0    5662    5663    5663       0    5665    5666    5666       0
    5668    5669    5669       0    5671    5672    5672       0    5674    5675
    5675       0    5677    5678    5678       0    5680    5681    5681       0
    5683    5684    5684       0    5686    5687    5687       0    5689    5690
    5690       0    5692    5693    5693       0    5695    5696    5696       0
    5698    5699    5699       0    5701    5702    5702       0    5704    5705
    5705       0    5707    5708    5708       0    5710    5711    5711       0
    5713    5714    5714       0    5716    5717    5717       0    5719    5720
    5720       0    5722    5723    5723       0    5725    5726    5726       0
    5728    5729    5729       0    5731    5732    5732       0    5734    5735
    5735       0    5737    5738    5738       0    5740    5741    5741       0
    5743    5744    5744       0    5746    5747    5747       0    5749    5750
    5750       0    5752    5753    5753       0    5755    5756    5756       0
    5758    5759    5759       0    5761    5762    5762       0    5764    5765
    5765       0    5767    5768    5768       0    5770    5771    5771       0
    5773    5774    5774       0    5776    5777    5777       0    5779    5780
    5780       0    5782    5783    5783       0    5785    5786    5786       0
    5788    5789    5789       0    5791    5792    5792       0    5794    5795
    5795       0    5797    5798    5798       0    5800    5801    5801       0
    5803    5804    5804       0    5806    5807    5807       0    5809    5810
    5810       0    5812    5813    5813       0    5815    5816    5816       0
    5818    5819    5819       0    5821    5822    5822       0    5824    5825
    5825       0    5827    5828    5828       0    5830    5831    5831       0
    5833    5834    5834       0    5836    5837    5837       0    5839    5840
    5840       0    5842    5843    5843       0    5845    5846    5846       0
    5848    5849    5849       0    5851    5852    5852       0    5854    5855
    5855       0    5857    5858    5858       0    5860    5861    5861       0
    5863    5864    5864       0    5866    5867    5867       0    5869    5870
    5870       0    5872    5873    5873       0    5875    5876    5876       0
    5878    5879    5879       0    5881    5882    5882       0    5884    5885
    5885       0    5887    5888    5888       0    5890    5891    5891       0
    5893    5894    5894       0    5896    5897    5897       0    5899    5900
    5900       0    5902    5903    5903       0    5905    5906    5906       0
    5908    5909    5909       0    5911    5912    5912       0    5914    5915
    5915       0    5917    5918    5918       0    5920    5921    5921       0
    5923    5924    5924       0    5926    5927    5927       0    5929    5930
    5930       0    5932    5933    5933       0    5935    5936    5936       0
    5938    5939    5939       0    5941    5942    5942       0    5944    5945
    5945       0    5947    5948    5948       0    5950    5951    5951       0
    5953    5954    5954       0    5956    5957    5957       0    5959    5960
    5960       0    5962    5963    5963       0    5965    5966    5966       0
    5968    5969    5969       0    5971    5972    5972       0    5974    5975
    5975       0    5977    5978    5978       0    5980    5981    5981       0
    5983    5984    5984       0    5986    5987    5987       0    5989    5990
    5990       0    5992    5993    5993       0    5995    5996    5996       0
    5998    5999    5999       0    6001    6002    6002       0    6004    6005
    6005       0    6007    6008    6008       0    6010    6011    6011       0
    6013    6014    6014       0    6016    6017    6017       0    6019    6020
    6020       0    6022    6023    6023       0    6025    6026    6026       0
    6028    6029    6029       0    6031    6032    6032       0    6034    6035
    6035       0    6037    6038    6038       0    6040    6041    6041       0
    6043    6044    6044       0    6046    6047    6047       0    6049    6050
    6050       0    6052    6053    6053       0    6055    6056    6056       0
    6058    6059    6059       0    6061    6062    6062       0    6064    6065
    6065       0    6067    6068    6068       0    6070    6071    6071       0
    6073    6074    6074       0    6076    6077    6077       0    6079    6080
    6080       0    6082    6083    6083       0    6085    6086    6086       0
    6088    6089    6089       0    6091    6092    6092       0    6094    6095
    6095       0    6097    6098    6098       0    6100    6101    6101       0
    6103    6104    6104       0    6106    6107    6107       0    6109    6110
    6110       0    6112    6113    6113       0    6115    6116    6116       0
    6118    6119    6119       0    6121    6122    6122       0    6124    6125
    6125       0    6127    6128    6128       0    6130    6131    6131       0
    6133    6134    6134       0    6136    6137    6137       0    6139    6140
    6140       0    6142    6143    6143       0    6145    6146    6146       0
    6148    6149    6149       0    6151    6152    6152       0    6154    6155
    6155       0    6157    6158    6158       0    6160    6161    6161       0
    6163    6164    6164       0    6166    6167    6167       0    6169    6170
    6170       0    6172    6173    6173       0    6175    6176    6176       0
    6178    6179    6179       0    6181    6182    6182       0    6184    6185
    6185       0    6187    6188    6188       0    6190    6191    6191       0
    6193    6194    6194       0    6196    6197    6197       0    6199    6200
    6200       0    6202    6203    6203       0    6205    6206    6206       0
    6208    6209    6209       0    6211    6212    6212       0    6214    6215
    6215       0    6217    6218    6218       0    6220    6221    6221       0
    6223    6224    6224       0    6226    6227    6227       0    6229    6230
    6230       0    6232    6233    6233       0    6235    6236    6236       0
    6238    6239    6239       0    6241    6242    6242       0    6244    6245
    6245       0    6247    6248    6248       0    6250    6251    6251       0
    6253    6254    6254       0    6256    6257    6257       0    6259    6260
    6260       0    6262    6263    6263       0    6265    6266    6266       0
    6268    6269    6269       0    6271    6272    6272       0    6274    6275
    6275       0    6277    6278    6278       0    6280    6281    6281       0
    6283    6284    6284       0    6286    6287    6287       0    6289    6290
    6290       0    6292    6293    6293       0    6295    6296    6296       0
    6298    6299    6299       0    6301    6302    6302       0    6304    6305
    6305       0    6307    6308    6308       0    6310    6311    6311       0
    6313    6314    6314       0    6316    6317    6317       0    6319    6320
    6320       0    6322    6323    6323       0    6325    6326    6326       0
    6328    6329    6329       0    6331    6332    6332       0    6334    6335
    6335       0    6337    6338    6338       0    6340    6341    6341       0
    6343    6344    6344       0    6346    6347    6347       0    6349    6350
    6350       0    6352    6353    6353       0    6355    6356    6356       0
    6358    6359    6359       0    6361    6362    6362       0    6364    6365
    6365       0    6367    6368    6368       0    6370    6371    6371       0
    6373    6374    6374       0    6376    6377    6377       0    6379    6380
    6380       0    6382    6383    6383       0    6385    6386    6386       0
    6388    6389    6389       0    6391    6392    6392       0    6394    6395
    6395       0    6397    6398    6398       0    6400    6401    6401       0
    6403    6404    6404       0    6406    6407    6407       0    6409    6410
    6410       0    6412    6413    6413       0    6415    6416    6416       0
    6418    6419    6419       0    6421    6422    6422       0    6424    6425
    6425       0    6427    6428    6428       0    6430    6431    6431       0
    6433    6434    6434       0    6436    6437    6437       0    6439    6440
    6440       0    6442    6443    6443       0    6445    6446    6446       0
    6448    6449    6449       0    6451    6452    6452       0    6454    6455
    6455       0    6457    6458    6458       0    6460    6461    6461       0
    6463    6464    6464       0    6466    6467    6467       0    6469    6470
    6470       0    6472    6473    6473       0    6475    6476    6476       0
    6478    6479    6479       0    6481    6482    6482       0    6484    6485
    6485       0    6487    6488    6488       0    6490    6491    6491       0
    6493    6494    6494       0    6496    6497    6497       0    6499    6500
    6500       0    6502    6503    6503       0    6505    6506    6506       0
    6508    6509    6509       0    6511    6512    6512       0    6514    6515
    6515       0    6517    6518    6518       0    6520    6521    6521       0
    6523    6524    6524       0    6526    6527    6527       0    6529    6530
    6530       0    6532    6533    6533       0    6535    6536    6536       0
    6538    6539    6539       0    6541    6542    6542       0    6544    6545
    6545       0    6547    6548    6548       0    6550    6551    6551       0
    6553    6554    6554       0    6556    6557    6557       0    6559    6560
    6560       0    6562    6563    6563       0    6565    6566    6566       0
    6568    6569    6569       0    6571    6572    6572       0    6574    6575
    6575       0    6577    6578    6578       0    6580    6581    6581       0
    6583    6584    6584       0    6586    6587    6587       0    6589    6590
    6590       0    6592    6593    6593       0    6595    6596    6596       0
    6598    6599    6599       0    6601    6602    6602       0    6604    6605
    6605       0    6607    6608    6608       0    6610    6611    6611       0
    6613    6614    6614       0    6616    6617    6617       0    6619    6620
    6620       0    6622    6623    6623       0    6625    6626    6626       0
    6628    6629    6629       0    6631    6632    6632       0    6634    6635
    6635       0    6637    6638    6638       0    6640    6641    6641       0
    6643    6644    6644       0    6646    6647    6647       0    6649    6650
    6650       0    6652    6653    6653       0    6655    6656    6656       0
    6658    6659    6659       0    6661    6662    6662       0    6664    6665
    6665       0    6667    6668    6668       0    6670    6671    6671       0
    6673    6674    6674       0    6676    6677    6677       0    6679    6680
    6680       0    6682    6683    6683       0    6685    6686    6686       0
    6688    6689    6689       0    6691    6692    6692       0    6694    6695
    6695       0    6697    6698    6698       0    6700    6701    6701       0
    6703    6704    6704       0    6706    6707    6707       0    6709    6710
    6710       0    6712    6713    6713       0    6715    6716    6716       0
    6718    6719    6719       0    6721    6722    6722       0    6724    6725
    6725       0    6727    6728    6728       0    6730    6731    6731       0
    6733    6734    6734       0    6736    6737    6737       0    6739    6740
    6740       0    6742    6743    6743       0    6745    6746    6746       0
    6748    6749    6749       0    6751    6752    6752       0    6754    6755
    6755       0    6757    6758    6758       0    6760    6761    6761       0
    6763    6764    6764       0    6766    6767    6767       0    6769    6770
    6770       0    6772    6773    6773       0    6775    6776    6776       0
    6778    6779    6779       0    6781    6782    6782       0    6784    6785
    6785       0    6787    6788    6788       0    6790    6791    6791       0
    6793    6794    6794       0    6796    6797    6797       0    6799    6800
    6800       0    6802    6803    6803       0    6805    6806    6806       0
    6808    6809    6809       0    6811    6812    6812       0    6814    6815
    6815       0    6817    6818    6818       0    6820    6821    6821       0
    6823    6824    6824       0    6826    6827    6827       0    6829    6830
    6830       0    6832    6833    6833       0    6835    6836    6836       0
    6838    6839    6839       0    6841    6842    6842       0    6844    6845
    6845       0    6847    6848    6848       0    6850    6851    6851       0
    6853    6854    6854       0    6856    6857    6857       0    6859    6860
    6860       0    6862    6863    6863       0    6865    6866    6866       0
    6868    6869    6869       0    6871    6872    6872       0    6874    6875
    6875       0    6877    6878    6878       0    6880    6881    6881       0
    6883    6884    6884       0    6886    6887    6887       0    6889    6890
    6890       0    6892    6893    6893       0    6895    6896    6896       0
    6898    6899    6899       0    6901    6902    6902       0    6904    6905
    6905       0    6907    6908    6908       0    6910    6911    6911       0
    6913    6914    6914       0    6916    6917    6917       0    6919    6920
    6920       0    6922    6923    6923       0    6925    6926    6926       0
    6928    6929    6929       0    6931    6932    6932       0    6934    6935
    6935       0    6937    6938    6938       0    6940    6941    6941       0
    6943    6944    6944       0    6946    6947    6947       0    6949    6950
    6950       0    6952    6953    6953       0    6955    6956    6956       0
    6958    6959    6959       0    6961    6962    6962       0    6964    6965
    6965       0    6967    6968    6968       0    6970    6971    6971       0
    6973    6974    6974       0    6976    6977    6977       0    6979    6980
    6980       0    6982    6983    6983       0    6985    6986    6986       0
    6988    6989    6989       0    6991    6992    6992       0    6994    6995
    6995       0    6997    6998    6998       0    7000    7001    7001       0
    7003    7004    7004       0    7006    7007    7007       0    7009    7010
    7010       0    7012    7013    7013       0    7015    7016    7016       0
    7018    7019    7019       0    7021    7022    7022       0    7024    7025
    7025       0    7027    7028    7028       0    7030    7031    7031       0
    7033    7034    7034       0    7036    7037    7037       0    7039    7040
    7040       0    7042    7043    7043       0    7045    7046    7046       0
    7048    7049    7049       0    7051    7052    7052       0    7054    7055
    7055       0    7057    7058    7058       0    7060    7061    7061       0
    7063    7064    7064       0    7066    7067    7067       0    7069    7070
    7070       0    7072    7073    7073       0    7075    7076    7076       0
    7078    7079    7079       0    7081    7082    7082       0    7084    7085
    7085       0    7087    7088    7088       0    7090    7091    7091       0
    7093    7094    7094       0    7096    7097    7097       0    7099    7100
    7100       0    7102    7103    7103       0    7105    7106    7106       0
    7108    7109    7109       0    7111    7112    7112       0    7114    7115
    7115       0    7117    7118    7118       0    7120    7121    7121       0
    7123    7124    7124       0    7126    7127    7127       0    7129    7130
    7130       0    7132    7133    7133       0    7135    7136    7136       0
    7138    7139    7139       0    7141    7142    7142       0    7144    7145
    7145       0    7147    7148    7148       0    7150    7151    7151       0
    7153    7154    7154       0    7156    7157    7157       0    7159    7160
    7160       0    7162    7163    7163       0    7165    7166    7166       0
    7168    7169    7169       0    7171    7172    7172       0    7174    7175
    7175       0    7177    7178    7178       0    7180    7181    7181       0
    7183    7184    7184       0    7186    7187    7187       0    7189    7190
    7190       0    7192    7193    7193       0    7195    7196    7196       0
    7198    7199    7199       0    7201    7202    7202       0    7204    7205
    7205       0    7207    7208    7208       0    7210    7211    7211       0
    7213    7214    7214       0    7216    7217    7217       0    7219    7220
    7220       0    7222    7223    7223       0    7225    7226    7226       0
    7228    7229    7229       0    7231    7232    7232       0    7234    7235
    7235       0    7237    7238    7238       0    7240    7241    7241       0
    7243    7244    7244       0    7246    7247    7247       0    7249    7250
    7250       0    7252    7253    7253       0    7255    7256    7256       0
    7258    7259    7259       0    7261    7262    7262       0    7264    7265
    7265       0    7267    7268    7268       0    7270    7271    7271       0
    7273    7274    7274       0    7276    7277    7277       0    7279    7280
    7280       0    7282    7283    7283       0    7285    7286    7286       0
    7288    7289    7289       0    7291    7292    7292       0    7294    7295
    7295       0    7297    7298    7298       0    7300    7301    7301       0
    7303    7304    7304       0    7306    7307    7307       0    7309    7310
    7310       0    7312    7313    7313       0    7315    7316    7316       0
    7318    7319    7319       0    7321    7322    7322       0    7324    7325
    7325       0    7327    7328    7328       0    7330    7331    7331       0
    7333    7334    7334       0    7336    7337    7337       0    7339    7340
    7340       0    7342    7343    7343       0    7345    7346    7346       0
    7348    7349    7349       0    7351    7352    7352       0    7354    7355
    7355       0    7357    7358    7358       0    7360    7361    7361       0
    7363    7364    7364       0    7366    7367    7367       0    7369    7370
    7370       0    7372    7373    7373       0    7375    7376    7376       0
    7378    7379    7379       0    7381    7382    7382       0    7384    7385
    7385       0    7387    7388    7388       0    7390    7391    7391       0
    7393    7394    7394       0    7396    7397    7397       0    7399    7400
    7400       0    7402    7403    7403       0    7405    7406    7406       0
    7408    7409    7409       0    7411    7412    7412       0    7414    7415
    7415       0    7417    7418    7418       0    7420    7421    7421       0
    7423    7424    7424       0    7426    7427    7427       0    7429    7430
    7430       0    7432    7433    7433       0    7435    7436    7436       0
    7438    7439    7439       0    7441    7442    7442       0    7444    7445
    7445       0    7447    7448    7448       0    7450    7451    7451       0
    7453    7454    7454       0    7456    7457    7457       0    7459    7460
    7460       0    7462    7463    7463       0    7465    7466    7466       0
    7468    7469    7469       0    7471    7472    7472       0    7474    7475
    7475       0    7477    7478    7478       0    7480    7481    7481       0
    7483    7484    7484       0    7486    7487    7487       0    7489    7490
    7490       0    7492    7493    7493       0    7495    7496    7496       0
    7498    7499    7499       0    7501    7502    7502       0    7504    7505
    7505       0    7507    7508    7508       0    7510    7511    7511       0
    7513    7514    7514       0    7516    7517    7517       0    7519    7520
    7520       0    7522    7523    7523       0    7525    7526    7526       0
    7528    7529    7529       0    7531    7532    7532       0    7534    7535
    7535       0    7537    7538    7538       0    7540    7541    7541       0
    7543    7544    7544       0    7546    7547    7547       0    7549    7550
    7550       0    7552    7553    7553       0    7555    7556    7556       0
    7558    7559    7559       0    7561    7562    7562       0    7564    7565
    7565       0    7567    7568    7568       0    7570    7571    7571       0
    7573    7574    7574       0    7576    7577    7577       0    7579    7580
    7580       0    7582    7583    7583       0    7585    7586    7586       0
    7588    7589    7589       0    7591    7592    7592       0    7594    7595
    7595       0    7597    7598    7598       0    7600    7601    7601       0
    7603    7604    7604       0    7606    7607    7607       0    7609    7610
    7610       0    7612    7613    7613       0    7615    7616    7616       0
    7618    7619    7619       0    7621    7622    7622       0    7624    7625
    7625       0    7627    7628    7628       0    7630    7631    7631       0
    7633    7634    7634       0    7636    7637    7637       0    7639    7640
    7640       0    7642    7643    7643       0    7645    7646    7646       0
    7648    7649    7649       0    7651    7652    7652       0    7654    7655
    7655       0    7657    7658    7658       0    7660    7661    7661       0
    7663    7664    7664       0    7666    7667    7667       0    7669    7670
    7670       0    7672    7673    7673       0    7675    7676    7676       0
    7678    7679    7679       0    7681    7682    7682       0    7684    7685
    7685       0    7687    7688    7688       0    7690    7691    7691       0
    7693    7694    7694       0    7696    7697    7697       0    7699    7700
    7700       0    7702    7703    7703       0    7705    7706    7706       0
    7708    7709    7709       0    7711    7712    7712       0    7714    7715
    7715       0    7717    7718    7718       0    7720    7721    7721       0
    7723    7724    7724       0    7726    7727    7727       0    7729    7730
    7730       0    7732    7733    7733       0    7735    7736    7736       0
    7738    7739    7739       0    7741    7742    7742       0    7744    7745
    7745       0    7747    7748    7748       0    7750    7751    7751       0
    7753    7754    7754       0    7756    7757    7757       0    7759    7760
    7760       0    7762    7763    7763       0    7765    7766    7766       0
    7768    7769    7769       0    7771    7772    7772       0    7774    7775
    7775       0    7777    7778    7778       0    7780    7781    7781       0
    7783    7784    7784       0    7786    7787    7787       0    7789    7790
    7790       0    7792    7793    7793       0    7795    7796    7796       0
    7798    7799    7799       0    7801    7802    7802       0    7804    7805
    7805       0    7807    7808    7808       0    7810    7811    7811       0
    7813    7814    7814       0    7816    7817    7817       0    7819    7820
    7820       0    7822    7823    7823       0    7825    7826    7826       0
    7828    7829    7829       0    7831    7832    7832       0    7834    7835
    7835       0    7837    7838    7838       0    7840    7841    7841       0
    7843    7844    7844       0    7846    7847    7847       0    7849    7850
    7850       0    7852    7853    7853       0    7855    7856    7856       0
    7858    7859    7859       0    7861    7862    7862       0    7864    7865
    7865       0    7867    7868    7868       0    7870    7871    7871       0
    7873    7874    7874       0    7876    7877    7877       0    7879    7880
    7880       0    7882    7883    7883       0    7885    7886    7886       0
    7888    7889    7889       0    7891    7892    7892       0    7894    7895
    7895       0    7897    7898    7898       0    7900    7901    7901       0
    7903    7904    7904       0    7906    7907    7907       0    7909    7910
    7910       0    7912    7913    7913       0    7915    7916    7916       0
    7918    7919    7919       0    7921    7922    7922       0    7924    7925
    7925       0    7927    7928    7928       0    7930    7931    7931       0
    7933    7934    7934       0    7936    7937    7937       0    7939    7940
    7940       0    7942    7943    7943       0    7945    7946    7946       0
    7948    7949    7949       0    7951    7952    7952       0    7954    7955
    7955       0    7957    7958    7958       0    7960    7961    7961       0
    7963    7964    7964       0    7966    7967    7967       0    7969    7970
    7970       0    7972    7973    7973       0    7975    7976    7976       0
    7978    7979    7979       0    7981    7982    7982       0    7984    7985
    7985       0    7987    7988    7988       0    7990    7991    7991       0
    7993    7994    7994       0    7996    7997    7997       0    7999    8000
    8000       0    8002    8003    8003       0    8005    8006    8006       0
    8008    8009    8009       0    8011    8012    8012       0    8014    8015
    8015       0    8017    8018    8018       0    8020    8021    8021       0
    8023    8024    8024       0    8026    8027    8027       0    8029    8030
    8030       0    8032    8033    8033       0    8035    8036    8036       0
    8038    8039    8039       0    8041    8042    8042       0    8044    8045
    8045       0    8047    8048    8048       0    8050    8051    8051       0
    8053    8054    8054       0    8056    8057    8057       0    8059    8060
    8060       0    8062    8063    8063       0    8065    8066    8066       0
    8068    8069    8069       0    8071    8072    8072       0    8074    8075
    8075       0    8077    8078    8078       0    8080    8081    8081       0
    8083    8084    8084       0    8086    8087    8087       0    8089    8090
    8090       0    8092    8093    8093       0    8095    8096    8096       0
    8098    8099    8099       0    8101    8102    8102       0    8104    8105
    8105       0    8107    8108    8108       0    8110    8111    8111       0
    8113    8114    8114       0    8116    8117    8117       0    8119    8120
    8120       0    8122    8123    8123       0    8125    8126    8126       0
    8128    8129    8129       0    8131    8132    8132       0    8134    8135
    8135       0    8137    8138    8138       0    8140    8141    8141       0
    8143    8144    8144       0    8146    8147    8147       0    8149    8150
    8150       0    8152    8153    8153       0    8155    8156    8156       0
    8158    8159    8159       0    8161    8162    8162       0    8164    8165
    8165       0    8167    8168    8168       0    8170    8171    8171       0
    8173    8174    8174       0    8176    8177    8177       0    8179    8180
    8180       0    8182    8183    8183       0    8185    8186    8186       0
    8188    8189    8189       0    8191    8192    8192       0    8194    8195
    8195       0    8197    8198    8198       0    8200    8201    8201       0
    8203    8204    8204       0    8206    8207    8207       0    8209    8210
    8210       0    8212    8213    8213       0    8215    8216    8216       0
    8218    8219    8219       0    8221    8222    8222       0    8224    8225
    8225       0    8227    8228    8228       0    8230    8231    8231       0
    8233    8234    8234       0    8236    8237    8237       0    8239    8240
    8240       0    8242    8243    8243       0    8245    8246    8246       0
    8248    8249    8249       0    8251    8252    8252       0    8254    8255
    8255       0    8257    8258    8258       0    8260    8261    8261       0
    8263    8264    8264       0    8266    8267    8267       0    8269    8270
    8270       0    8272    8273    8273       0    8275    8276    8276       0
    8278    8279    8279       0    8281    8282    8282       0    8284    8285
    8285       0    8287    8288    8288       0    8290    8291    8291       0
    8293    8294    8294       0    8296    8297    8297       0    8299    8300
    8300       0    8302    8303    8303       0    8305    8306    8306       0
    8308    8309    8309       0    8311    8312    8312       0    8314    8315
    8315       0    8317    8318    8318       0    8320    8321    8321       0
    8323    8324    8324       0    8326    8327    8327       0    8329    8330
    8330       0    8332    8333    8333       0    8335    8336    8336       0
    8338    8339    8339       0    8341    8342    8342       0    8344    8345
    8345       0    8347    8348    8348       0    8350    8351    8351       0
    8353    8354    8354       0    8356    8357    8357       0    8359    8360
    8360       0    8362    8363    8363       0    8365    8366    8366       0
    8368    8369    8369       0    8371    8372    8372       0    8374    8375
    8375       0    8377    8378    8378       0    8380    8381    8381       0
    8383    8384    8384       0    8386    8387    8387       0    8389    8390
    8390       0    8392    8393    8393       0    8395    8396    8396       0
    8398    8399    8399       0    8401    8402    8402       0    8404    8405
    8405       0    8407    8408    8408       0    8410    8411    8411       0
    8413    8414    8414       0    8416    8417    8417       0    8419    8420
    8420       0    8422    8423    8423       0    8425    8426    8426       0
    8428    8429    8429       0    8431    8432    8432       0    8434    8435
    8435       0    8437    8438    8438       0    8440    8441    8441       0
    8443    8444    8444       0    8446    8447    8447       0    8449    8450
    8450       0    8452    8453    8453       0    8455    8456    8456       0
    8458    8459    8459       0    8461    8462    8462       0    8464    8465
    8465       0    8467    8468    8468       0    8470    8471    8471       0
    8473    8474    8474       0    8476    8477    8477       0    8479    8480
    8480       0    8482    8483    8483       0    8485    8486    8486       0
    8488    8489    8489       0    8491    8492    8492       0    8494    8495
    8495       0    8497    8498    8498       0    8500    8501    8501       0
    8503    8504    8504       0    8506    8507    8507       0    8509    8510
    8510       0    8512    8513    8513       0    8515    8516    8516       0
    8518    8519    8519       0    8521    8522    8522       0    8524    8525
    8525       0    8527    8528    8528       0    8530    8531    8531       0
    8533    8534    8534       0    8536    8537    8537       0    8539    8540
    8540       0    8542    8543    8543       0    8545    8546    8546       0
    8548    8549    8549       0    8551    8552    8552       0    8554    8555
    8555       0    8557    8558    8558       0    8560    8561    8561       0
    8563    8564    8564       0    8566    8567    8567       0    8569    8570
    8570       0    8572    8573    8573       0    8575    8576    8576       0
    8578    8579    8579       0    8581    8582    8582       0    8584    8585
    8585       0    8587    8588    8588       0    8590    8591    8591       0
    8593    8594    8594       0    8596    8597    8597       0    8599    8600
    8600       0    8602    8603    8603       0    8605    8606    8606       0
    8608    8609    8609       0    8611    8612    8612       0    8614    8615
    8615       0    8617    8618    8618       0    8620    8621    8621       0
    8623    8624    8624       0    8626    8627    8627       0    8629    8630
    8630       0    8632    8633    8633       0    8635    8636    8636       0
    8638    8639    8639       0    8641    8642    8642       0    8644    8645
    8645       0    8647    8648    8648       0    8650    8651    8651       0
    8653    8654    8654       0    8656    8657    8657       0    8659    8660
    8660       0    8662    8663    8663       0    8665    8666    8666       0
    8668    8669    8669       0    8671    8672    8672       0    8674    8675
    8675       0    8677    8678    8678       0    8680    8681    8681       0
    8683    8684    8684       0    8686    8687    8687       0    8689    8690
    8690       0    8692    8693    8693       0    8695    8696    8696       0
    8698    8699    8699       0    8701    8702    8702       0    8704    8705
    8705       0    8707    8708    8708       0    8710    8711    8711       0
    8713    8714    8714       0    8716    8717    8717       0    8719    8720
    8720       0    8722    8723    8723       0    8725    8726    8726       0
    8728    8729    8729       0    8731    8732    8732       0    8734    8735
    8735       0    8737    8738    8738       0    8740    8741    8741       0
    8743    8744    8744       0    8746    8747    8747       0    8749    8750
    8750       0    8752    8753    8753       0    8755    8756    8756       0
    8758    8759    8759       0    8761    8762    8762       0    8764    8765
    8765       0    8767    8768    8768       0    8770    8771    8771       0
    8773    8774    8774       0    8776    8777    8777       0    8779    8780
    8780       0    8782    8783    8783       0    8785    8786    8786       0
    8788    8789    8789       0    8791    8792    8792       0    8794    8795
    8795       0    8797    8798    8798       0    8800    8801    8801       0
    8803    8804    8804       0    8806    8807    8807       0    8809    8810
    8810       0    8812    8813    8813       0    8815    8816    8816       0
    8818    8819    8819       0    8821    8822    8822       0    8824    8825
    8825       0    8827    8828    8828       0    8830    8831    8831       0
    8833    8834    8834       0    8836    8837    8837       0    8839    8840
    8840       0    8842    8843    8843       0    8845    8846    8846       0
    8848    8849    8849       0    8851    8852    8852       0    8854    8855
    8855       0    8857    8858    8858       0    8860    8861    8861       0
    8863    8864    8864       0    8866    8867    8867       0    8869    8870
    8870       0    8872    8873    8873       0    8875    8876    8876       0
    8878    8879    8879       0    8881    8882    8882       0    8884    8885
    8885       0    8887    8888    8888       0    8890    8891    8891       0
    8893    8894    8894       0    8896    8897    8897       0    8899    8900
    8900       0    8902    8903    8903       0    8905    8906    8906       0
    8908    8909    8909       0    8911    8912    8912       0    8914    8915
    8915       0    8917    8918    8918       0    8920    8921    8921       0
    8923    8924    8924       0    8926    8927    8927       0    8929    8930
    8930       0    8932    8933    8933       0    8935    8936    8936       0
    8938    8939    8939       0    8941    8942    8942       0    8944    8945
    8945       0    8947    8948    8948       0    8950    8951    8951       0
    8953    8954    8954       0    8956    8957    8957       0    8959    8960
    8960       0    8962    8963    8963       0    8965    8966    8966       0
    8968    8969    8969       0    8971    8972    8972       0    8974    8975
    8975       0    8977    8978    8978       0    8980    8981    8981       0
    8983    8984    8984       0    8986    8987    8987       0    8989    8990
    8990       0    8992    8993    8993       0    8995    8996    8996       0
    8998    8999    8999       0    9001    9002    9002       0    9004    9005
    9005       0    9007    9008    9008       0    9010    9011    9011       0
    9013    9014    9014       0    9016    9017    9017       0    9019    9020
    9020       0    9022    9023    9023       0    9025    9026    9026       0
    9028    9029    9029       0    9031    9032    9032       0    9034    9035
    9035       0    9037    9038    9038       0    9040    9041    9041       0
    9043    9044    9044       0    9046    9047    9047       0    9049    9050
    9050       0    9052    9053    9053       0    9055    9056    9056       0
    9058    9059    9059       0    9061    9062    9062       0    9064    9065
    9065       0    9067    9068    9068       0    9070    9071    9071       0
    9073    9074    9074       0    9076    9077    9077       0    9079    9080
    9080       0    9082    9083    9083       0    9085    9086    9086       0
    9088    9089    9089       0    9091    9092    9092       0    9094    9095
    9095       0    9097    9098    9098       0    9100    9101    9101       0
    9103    9104    9104       0    9106    9107    9107       0    9109    9110
    9110       0    9112    9113    9113       0    9115    9116    9116       0
    9118    9119    9119       0    9121    9122    9122       0    9124    9125
    9125       0    9127    9128    9128       0    9130    9131    9131       0
    9133    9134    9134       0    9136    9137    9137       0    9139    9140
    9140       0    9142    9143    9143       0    9145    9146    9146       0
    9148    9149    9149       0    9151    9152    9152       0    9154    9155
    9155       0    9157    9158    9158       0    9160    9161    9161       0
    9163    9164    9164       0    9166    9167    9167       0    9169    9170
    9170       0    9172    9173    9173       0    9175    9176    9176       0
    9178    9179    9179       0    9181    9182    9182       0    9184    9185
    9185       0    9187    9188    9188       0    9190    9191    9191       0
    9193    9194    9194       0    9196    9197    9197       0    9199    9200
    9200       0    9202    9203    9203       0    9205    9206    9206       0
    9208    9209    9209       0    9211    9212    9212       0    9214    9215
    9215       0    9217    9218    9218       0    9220    9221    9221       0
    9223    9224    9224       0    9226    9227    9227       0    9229    9230
    9230       0    9232    9233    9233       0    9235    9236    9236       0
    9238    9239    9239       0    9241    9242    9242       0    9244    9245
    9245       0    9247    9248    9248       0    9250    9251    9251       0
    9253    9254    9254       0    9256    9257    9257       0    9259    9260
    9260       0    9262    9263    9263       0    9265    9266    9266       0
    9268    9269    9269       0    9271    9272    9272       0    9274    9275
    9275       0    9277    9278    9278       0    9280    9281    9281       0
    9283    9284    9284       0    9286    9287    9287       0    9289    9290
    9290       0    9292    9293    9293       0    9295    9296    9296       0
    9298    9299    9299       0    9301    9302    9302       0    9304    9305
    9305       0    9307    9308    9308       0    9310    9311    9311       0
    9313    9314    9314       0    9316    9317    9317       0    9319    9320
    9320       0    9322    9323    9323       0    9325    9326    9326       0
    9328    9329    9329       0    9331    9332    9332       0    9334    9335
    9335       0    9337    9338    9338       0    9340    9341    9341       0
    9343    9344    9344       0    9346    9347    9347       0    9349    9350
    9350       0    9352    9353    9353       0    9355    9356    9356       0
    9358    9359    9359       0    9361    9362    9362       0    9364    9365
    9365       0    9367    9368    9368       0    9370    9371    9371       0
    9373    9374    9374       0    9376    9377    9377       0    9379    9380
    9380       0    9382    9383    9383       0    9385    9386    9386       0
    9388    9389    9389       0    9391    9392    9392       0    9394    9395
    9395       0    9397    9398    9398       0    9400    9401    9401       0
    9403    9404    9404       0    9406    9407    9407       0    9409    9410
    9410       0    9412    9413    9413       0    9415    9416    9416       0
    9418    9419    9419       0    9421    9422    9422       0    9424    9425
    9425       0    9427    9428    9428       0    9430    9431    9431       0
    9433    9434    9434       0    9436    9437    9437       0    9439    9440
    9440       0    9442    9443    9443       0    9445    9446    9446       0
    9448    9449    9449       0    9451    9452    9452       0    9454    9455
    9455       0    9457    9458    9458       0    9460    9461    9461       0
    9463    9464    9464       0    9466    9467    9467       0    9469    9470
    9470       0    9472    9473    9473       0    9475    9476    9476       0
    9478    9479    9479       0    9481    9482    9482       0    9484    9485
    9485       0    9487    9488    9488       0    9490    9491    9491       0
    9493    9494    9494       0    9496    9497    9497       0    9499    9500
    9500       0    9502    9503    9503       0    9505    9506    9506       0
    9508    9509    9509       0    9511    9512    9512       0    9514    9515
    9515       0    9517    9518    9518       0    9520    9521    9521       0
    9523    9524    9524       0    9526    9527    9527       0    9529    9530
    9530       0    9532    9533    9533       0    9535    9536    9536       0
    9538    9539    9539       0    9541    9542    9542       0    9544    9545
    9545       0    9547    9548    9548       0    9550    9551    9551       0
    9553    9554    9554       0    9556    9557    9557       0    9559    9560
    9560       0    9562    9563    9563       0    9565    9566    9566       0
    9568    9569    9569       0    9571    9572    9572       0    9574    9575
    9575       0    9577    9578    9578       0    9580    9581    9581       0
    9583    9584    9584       0    9586    9587    9587       0    9589    9590
    9590       0    9592    9593    9593       0    9595    9596    9596       0
    9598    9599    9599       0    9601    9602    9602       0    9604    9605
    9605       0    9607    9608    9608       0    9610    9611    9611       0
    9613    9614    9614       0    9616    9617    9617       0    9619    9620
    9620       0    9622    9623    9623       0    9625    9626    9626       0
    9628    9629    9629       0    9631    9632    9632       0    9634    9635
    9635       0    9637    9638    9638       0    9640    9641    9641       0
    9643    9644    9644       0    9646    9647    9647       0    9649    9650
    9650       0    9652    9653    9653       0    9655    9656    9656       0
    9658    9659    9659       0    9661    9662    9662       0    9664    9665
    9665       0    9667    9668    9668       0    9670    9671    9671       0
    9673    9674    9674       0    9676    9677    9677       0    9679    9680
    9680       0    9682    9683    9683       0    9685    9686    9686       0
    9688    9689    9689       0    9691    9692    9692       0    9694    9695
    9695       0    9697    9698    9698       0    9700    9701    9701       0
    9703    9704    9704       0    9706    9707    9707       0    9709    9710
    9710       0    9712    9713    9713       0    9715    9716    9716       0
    9718    9719    9719       0    9721    9722    9722       0    9724    9725
    9725       0    9727    9728    9728       0    9730    9731    9731       0
    9733    9734    9734       0    9736    9737    9737       0    9739    9740
    9740       0    9742    9743    9743       0    9745    9746    9746       0
    9748    9749    9749       0    9751    9752    9752       0    9754    9755
    9755       0    9757    9758    9758       0    9760    9761    9761       0
    9763    9764    9764       0    9766    9767    9767       0    9769    9770
    9770       0    9772    9773    9773       0    9775    9776    9776       0
    9778    9779    9779       0    9781    9782    9782       0    9784    9785
    9785       0    9787    9788    9788       0    9790    9791    9791       0
    9793    9794    9794       0    9796    9797    9797       0    9799    9800
    9800       0    9802    9803    9803       0    9805    9806    9806       0
    9808    9809    9809       0    9811    9812    9812       0    9814    9815
    9815       0    9817    9818    9818       0    9820    9821    9821       0
    9823    9824    9824       0    9826    9827    9827       0    9829    9830
    9830       0    9832    9833    9833       0    9835    9836    9836       0
    9838    9839    9839       0    9841    9842    9842       0    9844    9845
    9845       0    9847    9848    9848       0    9850    9851    9851       0
    9853    9854    9854       0    9856    9857    9857       0    9859    9860
    9860       0    9862    9863    9863       0    9865    9866    9866       0
    9868    9869    9869       0    9871    9872    9872       0    9874    9875
    9875       0    9877    9878    9878       0    9880    9881    9881       0
    9883    9884    9884       0    9886    9887    9887       0    9889    9890
    9890       0    9892    9893    9893       0    9895    9896    9896       0
    9898    9899    9899       0    9901    9902    9902       0    9904    9905
    9905       0    9907    9908    9908       0    9910    9911    9911       0
    9913    9914    9914       0    9916    9917    9917       0    9919    9920
    9920       0    9922    9923    9923       0    9925    9926    9926       0
    9928    9929    9929       0    9931    9932    9932       0    9934    9935
    9935       0    9937    9938    9938       0    9940    9941    9941       0
    9943    9944    9944       0    9946    9947    9947       0    9949    9950
    9950       0    9952    9953    9953       0    9955    9956    9956       0
    9958    9959    9959       0    9961    9962    9962       0    9964    9965
    9965       0    9967    9968    9968       0    9970    9971    9971       0
    9973    9974    9974       0    9976    9977    9977       0    9979    9980
    9980       0    9982    9983    9983       0    9985    9986    9986       0
    9988    9989    9989       0    9991    9992    9992       0    9994    9995
    9995       0    9997    9998    9998       0   10000   10001   10001       0
   10003   10004   10004       0   10006   10007   10007       0   10009   10010
   10010       0   10012   10013   10013       0   10015   10016   10016       0
   10018   10019   10019       0   10021   10022   10022       0   10024   10025
   10025       0   10027   10028   10028       0   10030   10031   10031       0
   10033   10034   10034       0   10036   10037   10037       0   10039   10040
   10040       0   10042   10043   10043       0   10045   10046   10046       0
   10048   10049   10049       0   10051   10052   10052       0   10054   10055
   10055       0   10057   10058   10058       0   10060   10061   10061       0
   10063   10064   10064       0   10066   10067   10067       0   10069   10070
   10070       0   10072   10073   10073       0   10075   10076   10076       0
   10078   10079   10079       0   10081   10082   10082       0   10084   10085
   10085       0   10087   10088   10088       0   10090   10091   10091       0
   10093   10094   10094       0   10096   10097   10097       0   10099   10100
   10100       0   10102   10103   10103       0   10105   10106   10106       0
   10108   10109   10109       0   10111   10112   10112       0   10114   10115
   10115       0   10117   10118   10118       0   10120   10121   10121       0
   10123   10124   10124       0   10126   10127   10127       0   10129   10130
   10130       0   10132   10133   10133       0   10135   10136   10136       0
   10138   10139   10139       0   10141   10142   10142       0   10144   10145
   10145       0   10147   10148   10148       0   10150   10151   10151       0
   10153   10154   10154       0   10156   10157   10157       0   10159   10160
   10160       0   10162   10163   10163       0   10165   10166   10166       0
   10168   10169   10169       0   10171   10172   10172       0   10174   10175
   10175       0   10177   10178   10178       0   10180   10181   10181       0
   10183   10184   10184       0   10186   10187   10187       0   10189   10190
   10190       0   10192   10193   10193       0   10195   10196   10196       0
   10198   10199   10199       0   10201   10202   10202       0   10204   10205
   10205       0   10207   10208   10208       0   10210   10211   10211       0
   10213   10214   10214       0   10216   10217   10217       0   10219   10220
   10220       0   10222   10223   10223       0   10225   10226   10226       0
   10228   10229   10229       0   10231   10232   10232       0   10234   10235
   10235       0   10237   10238   10238       0   10240   10241   10241       0
   10243   10244   10244       0   10246   10247   10247       0   10249   10250
   10250       0   10252   10253   10253       0   10255   10256   10256       0
   10258   10259   10259       0   10261   10262   10262       0   10264   10265
   10265       0   10267   10268   10268       0   10270   10271   10271       0
   10273   10274   10274       0   10276   10277   10277       0   10279   10280
   10280       0   10282   10283   10283       0   10285   10286   10286       0
   10288   10289   10289       0   10291   10292   10292       0   10294   10295
   10295       0   10297   10298   10298       0   10300   10301   10301       0
   10303   10304   10304       0   10306   10307   10307       0   10309   10310
   10310       0   10312   10313   10313       0   10315   10316   10316       0
   10318   10319   10319       0   10321   10322   10322       0   10324   10325
   10325       0   10327   10328   10328       0   10330   10331   10331       0
   10333   10334   10334       0   10336   10337   10337       0   10339   10340
   10340       0   10342   10343   10343       0   10345   10346   10346       0
   10348   10349   10349       0   10351   10352   10352       0   10354   10355
   10355       0   10357   10358   10358       0   10360   10361   10361       0
   10363   10364   10364       0   10366   10367   10367       0   10369   10370
   10370       0   10372   10373   10373       0   10375   10376   10376       0
   10378   10379   10379       0   10381   10382   10382       0   10384   10385
   10385       0   10387   10388   10388       0   10390   10391   10391       0
   10393   10394   10394       0   10396   10397   10397       0   10399   10400
   10400       0   10402   10403   10403       0   10405   10406   10406       0
   10408   10409   10409       0   10411   10412   10412       0   10414   10415
   10415       0   10417   10418   10418       0   10420   10421   10421       0
   10423   10424   10424       0   10426   10427   10427       0   10429   10430
   10430       0   10432   10433   10433       0   10435   10436   10436       0
   10438   10439   10439       0   10441   10442   10442       0   10444   10445
   10445       0   10447   10448   10448       0   10450   10451   10451       0
   10453   10454   10454       0   10456   10457   10457       0   10459   10460
   10460       0   10462   10463   10463       0   10465   10466   10466       0
   10468   10469   10469       0   10471   10472   10472       0   10474   10475
   10475       0   10477   10478   10478       0   10480   10481   10481       0
   10483   10484   10484       0   10486   10487   10487       0   10489   10490
   10490       0   10492   10493   10493       0   10495   10496   10496       0
   10498   10499   10499       0   10501   10502   10502       0   10504   10505
   10505       0   10507   10508   10508       0   10510   10511   10511       0
   10513   10514   10514       0   10516   10517   10517       0   10519   10520
   10520       0   10522   10523   10523       0   10525   10526   10526       0
   10528   10529   10529       0   10531   10532   10532       0   10534   10535
   10535       0   10537   10538   10538       0   10540   10541   10541       0
   10543   10544   10544       0   10546   10547   10547       0   10549   10550
   10550       0   10552   10553   10553       0   10555   10556   10556       0
   10558   10559   10559       0   10561   10562   10562       0   10564   10565
   10565       0   10567   10568   10568       0   10570   10571   10571       0
   10573   10574   10574       0   10576   10577   10577       0   10579   10580
   10580       0   10582   10583   10583       0   10585   10586   10586       0
   10588   10589   10589       0   10591   10592   10592       0   10594   10595
   10595       0   10597   10598   10598       0   10600   10601   10601       0
   10603   10604   10604       0   10606   10607   10607       0   10609   10610
   10610       0   10612   10613   10613       0   10615   10616   10616       0
   10618   10619   10619       0   10621   10622   10622       0   10624   10625
   10625       0   10627   10628   10628       0   10630   10631   10631       0
   10633   10634   10634       0   10636   10637   10637       0   10639   10640
   10640       0   10642   10643   10643       0   10645   10646   10646       0
   10648   10649   10649       0   10651   10652   10652       0   10654   10655
   10655       0   10657   10658   10658       0   10660   10661   10661       0
   10663   10664   10664       0   10666   10667   10667       0   10669   10670
   10670       0   10672   10673   10673       0   10675   10676   10676       0
   10678   10679   10679       0   10681   10682   10682       0   10684   10685
   10685       0   10687   10688   10688       0   10690   10691   10691       0
   10693   10694   10694       0   10696   10697   10697       0   10699   10700
   10700       0   10702   10703   10703       0   10705   10706   10706       0
   10708   10709   10709       0   10711   10712   10712       0   10714   10715
   10715       0   10717   10718   10718       0   10720   10721   10721       0
   10723   10724   10724       0   10726   10727   10727       0   10729   10730
   10730       0   10732   10733   10733       0   10735   10736   10736       0
   10738   10739   10739       0   10741   10742   10742       0   10744   10745
   10745       0   10747   10748   10748       0   10750   10751   10751       0
   10753   10754   10754       0   10756   10757   10757       0   10759   10760
   10760       0   10762   10763   10763       0   10765   10766   10766       0
   10768   10769   10769       0   10771   10772   10772       0   10774   10775
   10775       0   10777   10778   10778       0   10780   10781   10781       0
   10783   10784   10784       0   10786   10787   10787       0   10789   10790
   10790       0   10792   10793   10793       0   10795   10796   10796       0
   10798   10799   10799       0   10801   10802   10802       0   10804   10805
   10805       0   10807   10808   10808       0   10810   10811   10811       0
   10813   10814   10814       0   10816   10817   10817       0   10819   10820
   10820       0   10822   10823   10823       0   10825   10826   10826       0
   10828   10829   10829       0   10831   10832   10832       0   10834   10835
   10835       0   10837   10838   10838       0   10840   10841   10841       0
   10843   10844   10844       0   10846   10847   10847       0   10849   10850
   10850       0   10852   10853   10853       0   10855   10856   10856       0
   10858   10859   10859       0   10861   10862   10862       0   10864   10865
   10865       0   10867   10868   10868       0   10870   10871   10871       0
   10873   10874   10874       0   10876   10877   10877       0   10879   10880
   10880       0   10882   10883   10883       0   10885   10886   10886       0
   10888   10889   10889       0   10891   10892   10892       0   10894   10895
   10895       0   10897   10898   10898       0   10900   10901   10901       0
   10903   10904   10904       0   10906   10907   10907       0   10909   10910
   10910       0   10912   10913   10913       0   10915   10916   10916       0
   10918   10919   10919       0   10921   10922   10922       0   10924   10925
   10925       0   10927   10928   10928       0   10930   10931   10931       0
   10933   10934   10934       0   10936   10937   10937       0   10939   10940
   10940       0   10942   10943   10943       0   10945   10946   10946       0
   10948   10949   10949       0   10951   10952   10952       0   10954   10955
   10955       0   10957   10958   10958       0   10960   10961   10961       0
   10963   10964   10964       0   10966   10967   10967       0   10969   10970
   10970       0   10972   10973   10973       0   10975   10976   10976       0
   10978   10979   10979       0   10981   10982   10982       0   10984   10985
   10985       0   10987   10988   10988       0   10990   10991   10991       0
   10993   10994   10994       0   10996   10997   10997       0   10999   11000
   11000       0   11002   11003   11003       0   11005   11006   11006       0
   11008   11009   11009       0   11011   11012   11012       0   11014   11015
   11015       0   11017   11018   11018       0   11020   11021   11021       0
   11023   11024   11024       0   11026   11027   11027       0   11029   11030
   11030       0   11032   11033   11033       0   11035   11036   11036       0
   11038   11039   11039       0   11041   11042   11042       0   11044   11045
   11045       0   11047   11048   11048       0   11050   11051   11051       0
   11053   11054   11054       0   11056   11057   11057       0   11059   11060
   11060       0   11062   11063   11063       0   11065   11066   11066       0
   11068   11069   11069       0   11071   11072   11072       0   11074   11075
   11075       0   11077   11078   11078       0   11080   11081   11081       0
   11083   11084   11084       0   11086   11087   11087       0   11089   11090
   11090       0   11092   11093   11093       0   11095   11096   11096       0
   11098   11099   11099       0   11101   11102   11102       0   11104   11105
   11105       0   11107   11108   11108       0   11110   11111   11111       0
   11113   11114   11114       0   11116   11117   11117       0   11119   11120
   11120       0   11122   11123   11123       0   11125   11126   11126       0
   11128   11129   11129       0   11131   11132   11132       0   11134   11135
   11135       0   11137   11138   11138       0   11140   11141   11141       0
   11143   11144   11144       0   11146   11147   11147       0   11149   11150
   11150       0   11152   11153   11153       0   11155   11156   11156       0
   11158   11159   11159       0   11161   11162   11162       0   11164   11165
   11165       0   11167   11168   11168       0   11170   11171   11171       0
   11173   11174   11174       0   11176   11177   11177       0   11179   11180
   11180       0   11182   11183   11183       0   11185   11186   11186       0
   11188   11189   11189       0   11191   11192   11192       0   11194   11195
   11195       0   11197   11198   11198       0   11200   11201   11201       0
   11203   11204   11204       0   11206   11207   11207       0   11209   11210
   11210       0   11212   11213   11213       0   11215   11216   11216       0
   11218   11219   11219       0   11221   11222   11222       0   11224   11225
   11225       0   11227   11228   11228       0   11230   11231   11231       0
   11233   11234   11234       0   11236   11237   11237       0   11239   11240
   11240       0   11242   11243   11243       0   11245   11246   11246       0
   11248   11249   11249       0   11251   11252   11252       0   11254   11255
   11255       0   11257   11258   11258       0   11260   11261   11261       0
   11263   11264   11264       0   11266   11267   11267       0   11269   11270
   11270       0   11272   11273   11273       0   11275   11276   11276       0
   11278   11279   11279       0   11281   11282   11282       0   11284   11285
   11285       0   11287   11288   11288       0   11290   11291   11291       0
   11293   11294   11294       0   11296   11297   11297       0   11299   11300
   11300       0   11302   11303   11303       0   11305   11306   11306       0
   11308   11309   11309       0   11311   11312   11312       0   11314   11315
   11315       0   11317   11318   11318       0   11320   11321   11321       0
   11323   11324   11324       0   11326   11327   11327       0   11329   11330
   11330       0   11332   11333   11333       0   11335   11336   11336       0
   11338   11339   11339       0   11341   11342   11342       0   11344   11345
   11345       0   11347   11348   11348       0   11350   11351   11351       0
   11353   11354   11354       0   11356   11357   11357       0   11359   11360
   11360       0   11362   11363   11363       0   11365   11366   11366       0
   11368   11369   11369       0   11371   11372   11372       0   11374   11375
   11375       0   11377   11378   11378       0   11380   11381   11381       0
   11383   11384   11384       0   11386   11387   11387       0   11389   11390
   11390       0   11392   11393   11393       0   11395   11396   11396       0
   11398   11399   11399       0   11401   11402   11402       0   11404   11405
   11405       0   11407   11408   11408       0   11410   11411   11411       0
   11413   11414   11414       0   11416   11417   11417       0   11419   11420
   11420       0   11422   11423   11423       0   11425   11426   11426       0
   11428   11429   11429       0   11431   11432   11432       0   11434   11435
   11435       0   11437   11438   11438       0   11440   11441   11441       0
   11443   11444   11444       0   11446   11447   11447       0   11449   11450
   11450       0   11452   11453   11453       0   11455   11456   11456       0
   11458   11459   11459       0   11461   11462   11462       0   11464   11465
   11465       0   11467   11468   11468       0   11470   11471   11471       0
   11473   11474   11474       0   11476   11477   11477       0   11479   11480
   11480       0   11482   11483   11483       0   11485   11486   11486       0
   11488   11489   11489       0   11491   11492   11492       0   11494   11495
   11495       0   11497   11498   11498       0   11500   11501   11501       0
   11503   11504   11504       0   11506   11507   11507       0   11509   11510
   11510       0   11512   11513   11513       0   11515   11516   11516       0
   11518   11519   11519       0   11521   11522   11522       0   11524   11525
   11525       0   11527   11528   11528       0   11530   11531   11531       0
   11533   11534   11534       0   11536   11537   11537       0   11539   11540
   11540       0   11542   11543   11543       0   11545   11546   11546       0
   11548   11549   11549       0   11551   11552   11552       0   11554   11555
   11555       0   11557   11558   11558       0   11560   11561   11561       0
   11563   11564   11564       0   11566   11567   11567       0   11569   11570
   11570       0   11572   11573   11573       0   11575   11576   11576       0
   11578   11579   11579       0   11581   11582   11582       0   11584   11585
   11585       0   11587   11588   11588       0   11590   11591   11591       0
   11593   11594   11594       0   11596   11597   11597       0   11599   11600
   11600       0   11602   11603   11603       0   11605   11606   11606       0
   11608   11609   11609       0   11611   11612   11612       0   11614   11615
   11615       0   11617   11618   11618       0   11620   11621   11621       0
   11623   11624   11624       0   11626   11627   11627       0   11629   11630
   11630       0   11632   11633   11633       0   11635   11636   11636       0
   11638   11639   11639       0   11641   11642   11642       0   11644   11645
   11645       0   11647   11648   11648       0   11650   11651   11651       0
   11653   11654   11654       0   11656   11657   11657       0   11659   11660
   11660       0   11662   11663   11663       0   11665   11666   11666       0
   11668   11669   11669       0   11671   11672   11672       0   11674   11675
   11675       0   11677   11678   11678       0   11680   11681   11681       0
   11683   11684   11684       0   11686   11687   11687       0   11689   11690
   11690       0   11692   11693   11693       0   11695   11696   11696       0
   11698   11699   11699       0   11701   11702   11702       0   11704   11705
   11705       0   11707   11708   11708       0   11710   11711   11711       0
   11713   11714   11714       0   11716   11717   11717       0   11719   11720
   11720       0   11722   11723   11723       0   11725   11726   11726       0
   11728   11729   11729       0   11731   11732   11732       0   11734   11735
   11735       0   11737   11738   11738       0   11740   11741   11741       0
   11743   11744   11744       0   11746   11747   11747       0   11749   11750
   11750       0   11752   11753   11753       0   11755   11756   11756       0
   11758   11759   11759       0   11761   11762   11762       0   11764   11765
   11765       0   11767   11768   11768       0   11770   11771   11771       0
   11773   11774   11774       0   11776   11777   11777       0   11779   11780
   11780       0   11782   11783   11783       0   11785   11786   11786       0
   11788   11789   11789       0   11791   11792   11792       0   11794   11795
   11795       0   11797   11798   11798       0   11800   11801   11801       0
   11803   11804   11804       0   11806   11807   11807       0   11809   11810
   11810       0   11812   11813   11813       0   11815   11816   11816       0
   11818   11819   11819       0   11821   11822   11822       0   11824   11825
   11825       0   11827   11828   11828       0   11830   11831   11831       0
   11833   11834   11834       0   11836   11837   11837       0   11839   11840
   11840       0   11842   11843   11843       0   11845   11846   11846       0
   11848   11849   11849       0   11851   11852   11852       0   11854   11855
   11855       0   11857   11858   11858       0   11860   11861   11861       0
   11863   11864   11864       0   11866   11867   11867       0   11869   11870
   11870       0   11872   11873   11873       0   11875   11876   11876       0
   11878   11879   11879       0   11881   11882   11882       0   11884   11885
   11885       0   11887   11888   11888       0   11890   11891   11891       0
   11893   11894   11894       0   11896   11897   11897       0   11899   11900
   11900       0   11902   11903   11903       0   11905   11906   11906       0
   11908   11909   11909       0   11911   11912   11912       0   11914   11915
   11915       0   11917   11918   11918       0   11920   11921   11921       0
   11923   11924   11924       0   11926   11927   11927       0   11929   11930
   11930       0   11932   11933   11933       0   11935   11936   11936       0
   11938   11939   11939       0   11941   11942   11942       0   11944   11945
   11945       0   11947   11948   11948       0   11950   11951   11951       0
   11953   11954   11954       0   11956   11957   11957       0   11959   11960
   11960       0   11962   11963   11963       0   11965   11966   11966       0
   11968   11969   11969       0   11971   11972   11972       0   11974   11975
   11975       0   11977   11978   11978       0   11980   11981   11981       0
   11983   11984   11984       0   11986   11987   11987       0   11989   11990
   11990       0   11992   11993   11993       0   11995   11996   11996       0
   11998   11999   11999       0   12001   12002   12002       0   12004   12005
   12005       0   12007   12008   12008       0   12010   12011   12011       0
   12013   12014   12014       0   12016   12017   12017       0   12019   12020
   12020       0   12022   12023   12023       0   12025   12026   12026       0
   12028   12029   12029       0   12031   12032   12032       0   12034   12035
   12035       0   12037   12038   12038       0   12040   12041   12041       0
   12043   12044   12044       0   12046   12047   12047       0   12049   12050
   12050       0   12052   12053   12053       0   12055   12056   12056       0
   12058   12059   12059       0   12061   12062   12062       0   12064   12065
   12065       0   12067   12068   12068       0   12070   12071   12071       0
   12073   12074   12074       0   12076   12077   12077       0   12079   12080
   12080       0   12082   12083   12083       0   12085   12086   12086       0
   12088   12089   12089       0   12091   12092   12092       0   12094   12095
   12095       0   12097   12098   12098       0   12100   12101   12101       0
   12103   12104   12104       0   12106   12107   12107       0   12109   12110
   12110       0   12112   12113   12113       0   12115   12116   12116       0
   12118   12119   12119       0   12121   12122   12122       0   12124   12125
   12125       0   12127   12128   12128       0   12130   12131   12131       0
   12133   12134   12134       0   12136   12137   12137       0   12139   12140
   12140       0   12142   12143   12143       0   12145   12146   12146       0
   12148   12149   12149       0   12151   12152   12152       0   12154   12155
   12155       0   12157   12158   12158       0   12160   12161   12161       0
   12163   12164   12164       0   12166   12167   12167       0   12169   12170
   12170       0   12172   12173   12173       0   12175   12176   12176       0
   12178   12179   12179       0   12181   12182   12182       0   12184   12185
   12185       0   12187   12188   12188       0   12190   12191   12191       0
   12193   12194   12194       0   12196   12197   12197       0   12199   12200
   12200       0   12202   12203   12203       0   12205   12206   12206       0
   12208   12209   12209       0   12211   12212   12212       0   12214   12215
   12215       0   12217   12218   12218       0   12220   12221   12221       0
   12223   12224   12224       0   12226   12227   12227       0   12229   12230
   12230       0   12232   12233   12233       0   12235   12236   12236       0
   12238   12239   12239       0   12241   12242   12242       0   12244   12245
   12245       0   12247   12248   12248       0   12250   12251   12251       0
   12253   12254   12254       0   12256   12257   12257       0   12259   12260
   12260       0   12262   12263   12263       0   12265   12266   12266       0
   12268   12269   12269       0   12271   12272   12272       0   12274   12275
   12275       0   12277   12278   12278       0   12280   12281   12281       0
   12283   12284   12284       0   12286   12287   12287       0   12289   12290
   12290       0   12292   12293   12293       0   12295   12296   12296       0
   12298   12299   12299       0   12301   12302   12302       0   12304   12305
   12305       0   12307   12308   12308       0   12310   12311   12311       0
   12313   12314   12314       0   12316   12317   12317       0   12319   12320
   12320       0   12322   12323   12323       0   12325   12326   12326       0
   12328   12329   12329       0   12331   12332   12332       0   12334   12335
   12335       0   12337   12338   12338       0   12340   12341   12341       0
   12343   12344   12344       0   12346   12347   12347       0   12349   12350
   12350       0   12352   12353   12353       0   12355   12356   12356       0
   12358   12359   12359       0   12361   12362   12362       0   12364   12365
   12365       0   12367   12368   12368       0   12370   12371   12371       0
   12373   12374   12374       0   12376   12377   12377       0   12379   12380
   12380       0   12382   12383   12383       0   12385   12386   12386       0
   12388   12389   12389       0   12391   12392   12392       0   12394   12395
   12395       0   12397   12398   12398       0   12400   12401   12401       0
   12403   12404   12404       0   12406   12407   12407       0   12409   12410
   12410       0   12412   12413   12413       0   12415   12416   12416       0
   12418   12419   12419       0   12421   12422   12422       0   12424   12425
   12425       0   12427   12428   12428       0   12430   12431   12431       0
   12433   12434   12434       0   12436   12437   12437       0   12439   12440
   12440       0   12442   12443   12443       0   12445   12446   12446       0
   12448   12449   12449       0   12451   12452   12452       0   12454   12455
   12455       0   12457   12458   12458       0   12460   12461   12461       0
   12463   12464   12464       0   12466   12467   12467       0   12469   12470
   12470       0   12472   12473   12473       0   12475   12476   12476       0
   12478   12479   12479       0   12481   12482   12482       0   12484   12485
   12485       0   12487   12488   12488       0   12490   12491   12491       0
   12493   12494   12494       0   12496   12497   12497       0   12499   12500
   12500       0   12502   12503   12503       0   12505   12506   12506       0
   12508   12509   12509       0   12511   12512   12512       0   12514   12515
   12515       0   12517   12518   12518       0   12520   12521   12521       0
   12523   12524   12524       0   12526   12527   12527       0   12529   12530
   12530       0   12532   12533   12533       0   12535   12536   12536       0
   12538   12539   12539       0   12541   12542   12542       0   12544   12545
   12545       0   12547   12548   12548       0   12550   12551   12551       0
   12553   12554   12554       0   12556   12557   12557       0   12559   12560
   12560       0   12562   12563   12563       0   12565   12566   12566       0
   12568   12569   12569       0   12571   12572   12572       0   12574   12575
   12575       0   12577   12578   12578       0   12580   12581   12581       0
   12583   12584   12584       0   12586   12587   12587       0   12589   12590
   12590       0   12592   12593   12593       0   12595   12596   12596       0
   12598   12599   12599       0   12601   12602   12602       0   12604   12605
   12605       0   12607   12608   12608       0   12610   12611   12611       0
   12613   12614   12614       0   12616   12617   12617       0   12619   12620
   12620       0   12622   12623   12623       0   12625   12626   12626       0
   12628   12629   12629       0   12631   12632   12632       0   12634   12635
   12635       0   12637   12638   12638       0   12640   12641   12641       0
   12643   12644   12644       0   12646   12647   12647       0   12649   12650
   12650       0   12652   12653   12653       0   12655   12656   12656       0
   12658   12659   12659       0   12661   12662   12662       0   12664   12665
   12665       0   12667   12668   12668       0   12670   12671   12671       0
   12673   12674   12674       0   12676   12677   12677       0   12679   12680
   12680       0   12682   12683   12683       0   12685   12686   12686       0
   12688   12689   12689       0   12691   12692   12692       0   12694   12695
   12695       0   12697   12698   12698       0   12700   12701   12701       0
   12703   12704   12704       0   12706   12707   12707       0   12709   12710
   12710       0   12712   12713   12713       0   12715   12716   12716       0
   12718   12719   12719       0   12721   12722   12722       0   12724   12725
   12725       0   12727   12728   12728       0   12730   12731   12731       0
   12733   12734   12734       0   12736   12737   12737       0   12739   12740
   12740       0   12742   12743   12743       0   12745   12746   12746       0
   12748   12749   12749       0   12751   12752   12752       0   12754   12755
   12755       0   12757   12758   12758       0   12760   12761   12761       0
   12763   12764   12764       0   12766   12767   12767       0   12769   12770
   12770       0   12772   12773   12773       0   12775   12776   12776       0
   12778   12779   12779       0   12781   12782   12782       0   12784   12785
   12785       0   12787   12788   12788       0   12790   12791   12791       0
   12793   12794   12794       0   12796   12797   12797       0   12799   12800
   12800       0   12802   12803   12803       0   12805   12806   12806       0
   12808   12809   12809       0   12811   12812   12812       0   12814   12815
   12815       0   12817   12818   12818       0   12820   12821   12821       0
   12823   12824   12824       0   12826   12827   12827       0   12829   12830
   12830       0   12832   12833   12833       0   12835   12836   12836       0
   12838   12839   12839       0   12841   12842   12842       0   12844   12845
   12845       0   12847   12848   12848       0   12850   12851   12851       0
   12853   12854   12854       0   12856   12857   12857       0   12859   12860
   12860       0   12862   12863   12863       0   12865   12866   12866       0
   12868   12869   12869       0   12871   12872   12872       0   12874   12875
   12875       0   12877   12878   12878       0   12880   12881   12881       0
   12883   12884   12884       0   12886   12887   12887       0   12889   12890
   12890       0   12892   12893   12893       0   12895   12896   12896       0
   12898   12899   12899       0   12901   12902   12902       0   12904   12905
   12905       0   12907   12908   12908       0   12910   12911   12911       0
   12913   12914   12914       0   12916   12917   12917       0   12919   12920
   12920       0   12922   12923   12923       0   12925   12926   12926       0
   12928   12929   12929       0   12931   12932   12932       0   12934   12935
   12935       0   12937   12938   12938       0   12940   12941   12941       0
   12943   12944   12944       0   12946   12947   12947       0   12949   12950
   12950       0   12952   12953   12953       0   12955   12956   12956       0
   12958   12959   12959       0   12961   12962   12962       0   12964   12965
   12965       0   12967   12968   12968       0   12970   12971   12971       0
   12973   12974   12974       0   12976   12977   12977       0   12979   12980
   12980       0   12982   12983   12983       0   12985   12986   12986       0
   12988   12989   12989       0   12991   12992   12992       0   12994   12995
   12995       0   12997   12998   12998       0   13000   13001   13001       0
   13003   13004   13004       0   13006   13007   13007       0   13009   13010
   13010       0   13012   13013   13013       0   13015   13016   13016       0
   13018   13019   13019       0   13021   13022   13022       0   13024   13025
   13025       0   13027   13028   13028       0   13030   13031   13031       0
   13033   13034   13034       0   13036   13037   13037       0   13039   13040
   13040       0   13042   13043   13043       0   13045   13046   13046       0
   13048   13049   13049       0   13051   13052   13052       0   13054   13055
   13055       0   13057   13058   13058       0   13060   13061   13061       0
   13063   13064   13064       0   13066   13067   13067       0   13069   13070
   13070       0   13072   13073   13073       0   13075   13076   13076       0
   13078   13079   13079       0   13081   13082   13082       0   13084   13085
   13085       0   13087   13088   13088       0   13090   13091   13091       0
   13093   13094   13094       0   13096   13097   13097       0   13099   13100
   13100       0   13102   13103   13103       0   13105   13106   13106       0
   13108   13109   13109       0   13111   13112   13112       0   13114   13115
   13115       0   13117   13118   13118       0   13120   13121   13121       0
   13123   13124   13124       0   13126   13127   13127       0   13129   13130
   13130       0   13132   13133   13133       0   13135   13136   13136       0
   13138   13139   13139       0   13141   13142   13142       0   13144   13145
   13145       0   13147   13148   13148       0   13150   13151   13151       0
   13153   13154   13154       0   13156   13157   13157       0   13159   13160
   13160       0   13162   13163   13163       0   13165   13166   13166       0
   13168   13169   13169       0   13171   13172   13172       0   13174   13175
   13175       0   13177   13178   13178       0   13180   13181   13181       0
   13183   13184   13184       0   13186   13187   13187       0   13189   13190
   13190       0   13192   13193   13193       0   13195   13196   13196       0
   13198   13199   13199       0   13201   13202   13202       0   13204   13205
   13205       0   13207   13208   13208       0   13210   13211   13211       0
   13213   13214   13214       0   13216   13217   13217       0   13219   13220
   13220       0   13222   13223   13223       0   13225   13226   13226       0
   13228   13229   13229       0   13231   13232   13232       0   13234   13235
   13235       0   13237   13238   13238       0   13240   13241   13241       0
   13243   13244   13244       0   13246   13247   13247       0   13249   13250
   13250       0   13252   13253   13253       0   13255   13256   13256       0
   13258   13259   13259       0   13261   13262   13262       0   13264   13265
   13265       0   13267   13268   13268       0   13270   13271   13271       0
   13273   13274   13274       0   13276   13277   13277       0   13279   13280
   13280       0   13282   13283   13283       0   13285   13286   13286       0
   13288   13289   13289       0   13291   13292   13292       0   13294   13295
   13295       0   13297   13298   13298       0   13300   13301   13301       0
   13303   13304   13304       0   13306   13307   13307       0   13309   13310
   13310       0   13312   13313   13313       0   13315   13316   13316       0
   13318   13319   13319       0   13321   13322   13322       0   13324   13325
   13325       0   13327   13328   13328       0   13330   13331   13331       0
   13333   13334   13334       0   13336   13337   13337       0   13339   13340
   13340       0   13342   13343   13343       0   13345   13346   13346       0
   13348   13349   13349       0   13351   13352   13352       0   13354   13355
   13355       0   13357   13358   13358       0   13360   13361   13361       0
   13363   13364   13364       0   13366   13367   13367       0   13369   13370
   13370       0   13372   13373   13373       0   13375   13376   13376       0
   13378   13379   13379       0   13381   13382   13382       0   13384   13385
   13385       0   13387   13388   13388       0   13390   13391   13391       0
   13393   13394   13394       0   13396   13397   13397       0   13399   13400
   13400       0   13402   13403   13403       0   13405   13406   13406       0
   13408   13409   13409       0   13411   13412   13412       0   13414   13415
   13415       0   13417   13418   13418       0   13420   13421   13421       0
   13423   13424   13424       0   13426   13427   13427       0   13429   13430
   13430       0   13432   13433   13433       0   13435   13436   13436       0
   13438   13439   13439       0   13441   13442   13442       0   13444   13445
   13445       0   13447   13448   13448       0   13450   13451   13451       0
   13453   13454   13454       0   13456   13457   13457       0   13459   13460
   13460       0   13462   13463   13463       0   13465   13466   13466       0
   13468   13469   13469       0   13471   13472   13472       0   13474   13475
   13475       0   13477   13478   13478       0   13480   13481   13481       0
   13483   13484   13484       0   13486   13487   13487       0   13489   13490
   13490       0   13492   13493   13493       0   13495   13496   13496       0
   13498   13499   13499       0   13501   13502   13502       0   13504   13505
   13505       0   13507   13508   13508       0   13510   13511   13511       0
   13513   13514   13514       0   13516   13517   13517       0   13519   13520
   13520       0   13522   13523   13523       0   13525   13526   13526       0
   13528   13529   13529       0   13531   13532   13532       0   13534   13535
   13535       0   13537   13538   13538       0   13540   13541   13541       0
   13543   13544   13544       0   13546   13547   13547       0   13549   13550
   13550       0   13552   13553   13553       0   13555   13556   13556       0
   13558   13559   13559       0   13561   13562   13562       0   13564   13565
   13565       0   13567   13568   13568       0   13570   13571   13571       0
   13573   13574   13574       0   13576   13577   13577       0   13579   13580
   13580       0   13582   13583   13583       0   13585   13586   13586       0
   13588   13589   13589       0   13591   13592   13592       0   13594   13595
   13595       0   13597   13598   13598       0   13600   13601   13601       0
   13603   13604   13604       0   13606   13607   13607       0   13609   13610
   13610       0   13612   13613   13613       0   13615   13616   13616       0
   13618   13619   13619       0   13621   13622   13622       0   13624   13625
   13625       0   13627   13628   13628       0   13630   13631   13631       0
   13633   13634   13634       0   13636   13637   13637       0   13639   13640
   13640       0   13642   13643   13643       0   13645   13646   13646       0
   13648   13649   13649       0   13651   13652   13652       0   13654   13655
   13655       0   13657   13658   13658       0   13660   13661   13661       0
   13663   13664   13664       0   13666   13667   13667       0   13669   13670
   13670       0   13672   13673   13673       0   13675   13676   13676       0
   13678   13679   13679       0   13681   13682   13682       0   13684   13685
   13685       0   13687   13688   13688       0   13690   13691   13691       0
   13693   13694   13694       0   13696   13697   13697       0   13699   13700
   13700       0   13702   13703   13703       0   13705   13706   13706       0
   13708   13709   13709       0   13711   13712   13712       0   13714   13715
   13715       0   13717   13718   13718       0   13720   13721   13721       0
   13723   13724   13724       0   13726   13727   13727       0   13729   13730
   13730       0   13732   13733   13733       0   13735   13736   13736       0
   13738   13739   13739       0   13741   13742   13742       0   13744   13745
   13745       0   13747   13748   13748       0   13750   13751   13751       0
   13753   13754   13754       0   13756   13757   13757       0   13759   13760
   13760       0   13762   13763   13763       0   13765   13766   13766       0
   13768   13769   13769       0   13771   13772   13772       0   13774   13775
   13775       0   13777   13778   13778       0   13780   13781   13781       0
   13783   13784   13784       0   13786   13787   13787       0   13789   13790
   13790       0   13792   13793   13793       0   13795   13796   13796       0
   13798   13799   13799       0   13801   13802   13802       0   13804   13805
   13805       0   13807   13808   13808       0   13810   13811   13811       0
   13813   13814   13814       0   13816   13817   13817       0   13819   13820
   13820       0   13822   13823   13823       0   13825   13826   13826       0
   13828   13829   13829       0   13831   13832   13832       0   13834   13835
   13835       0   13837   13838   13838       0   13840   13841   13841       0
   13843   13844   13844       0   13846   13847   13847       0   13849   13850
   13850       0   13852   13853   13853       0   13855   13856   13856       0
   13858   13859   13859       0   13861   13862   13862       0   13864   13865
   13865       0   13867   13868   13868       0   13870   13871   13871       0
   13873   13874   13874       0   13876   13877   13877       0   13879   13880
   13880       0   13882   13883   13883       0   13885   13886   13886       0
   13888   13889   13889       0   13891   13892   13892       0   13894   13895
   13895       0   13897   13898   13898       0   13900   13901   13901       0
   13903   13904   13904       0   13906   13907   13907       0   13909   13910
   13910       0   13912   13913   13913       0   13915   13916   13916       0
   13918   13919   13919       0   13921   13922   13922       0   13924   13925
   13925       0   13927   13928   13928       0   13930   13931   13931       0
   13933   13934   13934       0   13936   13937   13937       0   13939   13940
   13940       0   13942   13943   13943       0   13945   13946   13946       0
   13948   13949   13949       0   13951   13952   13952       0   13954   13955
   13955       0   13957   13958   13958       0   13960   13961   13961       0
   13963   13964   13964       0   13966   13967   13967       0   13969   13970
   13970       0   13972   13973   13973       0   13975   13976   13976       0
   13978   13979   13979       0   13981   13982   13982       0   13984   13985
   13985       0   13987   13988   13988       0   13990   13991   13991       0
   13993   13994   13994       0   13996   13997   13997       0   13999   14000
   14000       0   14002   14003   14003       0   14005   14006   14006       0
   14008   14009   14009       0   14011   14012   14012       0   14014   14015
   14015       0   14017   14018   14018       0   14020   14021   14021       0
   14023   14024   14024       0   14026   14027   14027       0   14029   14030
   14030       0   14032   14033   14033       0   14035   14036   14036       0
   14038   14039   14039       0   14041   14042   14042       0   14044   14045
   14045       0   14047   14048   14048       0   14050   14051   14051       0
   14053   14054   14054       0   14056   14057   14057       0   14059   14060
   14060       0   14062   14063   14063       0   14065   14066   14066       0
   14068   14069   14069       0   14071   14072   14072       0   14074   14075
   14075       0   14077   14078   14078       0   14080   14081   14081       0
   14083   14084   14084       0   14086   14087   14087       0   14089   14090
   14090       0   14092   14093   14093       0   14095   14096   14096       0
   14098   14099   14099       0   14101   14102   14102       0   14104   14105
   14105       0   14107   14108   14108       0   14110   14111   14111       0
   14113   14114   14114       0   14116   14117   14117       0   14119   14120
   14120       0   14122   14123   14123       0   14125   14126   14126       0
   14128   14129   14129       0   14131   14132   14132       0   14134   14135
   14135       0   14137   14138   14138       0   14140   14141   14141       0
   14143   14144   14144       0   14146   14147   14147       0   14149   14150
   14150       0   14152   14153   14153       0   14155   14156   14156       0
   14158   14159   14159       0   14161   14162   14162       0   14164   14165
   14165       0   14167   14168   14168       0   14170   14171   14171       0
   14173   14174   14174       0   14176   14177   14177       0   14179   14180
   14180       0   14182   14183   14183       0   14185   14186   14186       0
   14188   14189   14189       0   14191   14192   14192       0   14194   14195
   14195       0   14197   14198   14198       0   14200   14201   14201       0
   14203   14204   14204       0   14206   14207   14207       0   14209   14210
   14210       0   14212   14213   14213       0   14215   14216   14216       0
   14218   14219   14219       0   14221   14222   14222       0   14224   14225
   14225       0   14227   14228   14228       0   14230   14231   14231       0
   14233   14234   14234       0   14236   14237   14237       0   14239   14240
   14240       0   14242   14243   14243       0   14245   14246   14246       0
   14248   14249   14249       0   14251   14252   14252       0   14254   14255
   14255       0   14257   14258   14258       0   14260   14261   14261       0
   14263   14264   14264       0   14266   14267   14267       0   14269   14270
   14270       0   14272   14273   14273       0   14275   14276   14276       0
   14278   14279   14279       0   14281   14282   14282       0   14284   14285
   14285       0   14287   14288   14288       0   14290   14291   14291       0
   14293   14294   14294       0   14296   14297   14297       0   14299   14300
   14300       0   14302   14303   14303       0   14305   14306   14306       0
   14308   14309   14309       0   14311   14312   14312       0   14314   14315
   14315       0   14317   14318   14318       0   14320   14321   14321       0
   14323   14324   14324       0   14326   14327   14327       0   14329   14330
   14330       0   14332   14333   14333       0   14335   14336   14336       0
   14338   14339   14339       0   14341   14342   14342       0   14344   14345
   14345       0   14347   14348   14348       0   14350   14351   14351       0
   14353   14354   14354       0   14356   14357   14357       0   14359   14360
   14360       0   14362   14363   14363       0   14365   14366   14366       0
   14368   14369   14369       0   14371   14372   14372       0   14374   14375
   14375       0   14377   14378   14378       0   14380   14381   14381       0
   14383   14384   14384       0   14386   14387   14387       0   14389   14390
   14390       0   14392   14393   14393       0   14395   14396   14396       0
   14398   14399   14399       0   14401   14402   14402       0   14404   14405
   14405       0   14407   14408   14408       0   14410   14411   14411       0
   14413   14414   14414       0   14416   14417   14417       0   14419   14420
   14420       0   14422   14423   14423       0   14425   14426   14426       0
   14428   14429   14429       0   14431   14432   14432       0   14434   14435
   14435       0   14437   14438   14438       0   14440   14441   14441       0
   14443   14444   14444       0   14446   14447   14447       0   14449   14450
   14450       0   14452   14453   14453       0   14455   14456   14456       0
   14458   14459   14459       0   14461   14462   14462       0   14464   14465
   14465       0   14467   14468   14468       0   14470   14471   14471       0
   14473   14474   14474       0   14476   14477   14477       0   14479   14480
   14480       0   14482   14483   14483       0   14485   14486   14486       0
   14488   14489   14489       0   14491   14492   14492       0   14494   14495
   14495       0   14497   14498   14498       0   14500   14501   14501       0
   14503   14504   14504       0   14506   14507   14507       0   14509   14510
   14510       0   14512   14513   14513       0   14515   14516   14516       0
   14518   14519   14519       0   14521   14522   14522       0   14524   14525
   14525       0   14527   14528   14528       0   14530   14531   14531       0
   14533   14534   14534       0   14536   14537   14537       0   14539   14540
   14540       0   14542   14543   14543       0   14545   14546   14546       0
   14548   14549   14549       0   14551   14552   14552       0   14554   14555
   14555       0   14557   14558   14558       0   14560   14561   14561       0
   14563   14564   14564       0   14566   14567   14567       0   14569   14570
   14570       0   14572   14573   14573       0   14575   14576   14576       0
   14578   14579   14579       0   14581   14582   14582       0   14584   14585
   14585       0   14587   14588   14588       0   14590   14591   14591       0
   14593   14594   14594       0   14596   14597   14597       0   14599   14600
   14600       0   14602   14603   14603       0   14605   14606   14606       0
   14608   14609   14609       0   14611   14612   14612       0   14614   14615
   14615       0   14617   14618   14618       0   14620   14621   14621       0
   14623   14624   14624       0   14626   14627   14627       0   14629   14630
   14630       0   14632   14633   14633       0   14635   14636   14636       0
   14638   14639   14639       0   14641   14642   14642       0   14644   14645
   14645       0   14647   14648   14648       0   14650   14651   14651       0
   14653   14654   14654       0   14656   14657   14657       0   14659   14660
   14660       0   14662   14663   14663       0   14665   14666   14666       0
   14668   14669   14669       0   14671   14672   14672       0   14674   14675
   14675       0   14677   14678   14678       0   14680   14681   14681       0
   14683   14684   14684       0   14686   14687   14687       0   14689   14690
   14690       0   14692   14693   14693       0   14695   14696   14696       0
   14698   14699   14699       0   14701   14702   14702       0   14704   14705
   14705       0   14707   14708   14708       0   14710   14711   14711       0
   14713   14714   14714       0   14716   14717   14717       0   14719   14720
   14720       0   14722   14723   14723       0   14725   14726   14726       0
   14728   14729   14729       0   14731   14732   14732       0   14734   14735
   14735       0   14737   14738   14738       0   14740   14741   14741       0
   14743   14744   14744       0   14746   14747   14747       0   14749   14750
   14750       0   14752   14753   14753       0   14755   14756   14756       0
   14758   14759   14759       0   14761   14762   14762       0   14764   14765
   14765       0   14767   14768   14768       0   14770   14771   14771       0
   14773   14774   14774       0   14776   14777   14777       0   14779   14780
   14780       0   14782   14783   14783       0   14785   14786   14786       0
   14788   14789   14789       0   14791   14792   14792       0   14794   14795
   14795       0   14797   14798   14798       0   14800   14801   14801       0
   14803   14804   14804       0   14806   14807   14807       0   14809   14810
   14810       0   14812   14813   14813       0   14815   14816   14816       0
   14818   14819   14819       0   14821   14822   14822       0   14824   14825
   14825       0   14827   14828   14828       0   14830   14831   14831       0
   14833   14834   14834       0   14836   14837   14837       0   14839   14840
   14840       0   14842   14843   14843       0   14845   14846   14846       0
   14848   14849   14849       0   14851   14852   14852       0   14854   14855
   14855       0   14857   14858   14858       0   14860   14861   14861       0
   14863   14864   14864       0   14866   14867   14867       0   14869   14870
   14870       0   14872   14873   14873       0   14875   14876   14876       0
   14878   14879   14879       0   14881   14882   14882       0   14884   14885
   14885       0   14887   14888   14888       0   14890   14891   14891       0
   14893   14894   14894       0   14896   14897   14897       0   14899   14900
   14900       0   14902   14903   14903       0   14905   14906   14906       0
   14908   14909   14909       0   14911   14912   14912       0   14914   14915
   14915       0   14917   14918   14918       0   14920   14921   14921       0
   14923   14924   14924       0   14926   14927   14927       0   14929   14930
   14930       0   14932   14933   14933       0   14935   14936   14936       0
   14938   14939   14939       0   14941   14942   14942       0   14944   14945
   14945       0   14947   14948   14948       0   14950   14951   14951       0
   14953   14954   14954       0   14956   14957   14957       0   14959   14960
   14960       0   14962   14963   14963       0   14965   14966   14966       0
   14968   14969   14969       0   14971   14972   14972       0   14974   14975
   14975       0   14977   14978   14978       0   14980   14981   14981       0
   14983   14984   14984       0   14986   14987   14987       0   14989   14990
   14990       0   14992   14993   14993       0   14995   14996   14996       0
   14998   14999   14999       0   15001   15002   15002       0   15004   15005
   15005       0   15007   15008   15008       0   15010   15011   15011       0
   15013   15014   15014       0   15016   15017   15017       0   15019   15020
   15020       0   15022   15023   15023       0   15025   15026   15026       0
   15028   15029   15029       0   15031   15032   15032       0   15034   15035
   15035       0   15037   15038   15038       0   15040   15041   15041       0
   15043   15044   15044       0   15046   15047   15047       0   15049   15050
   15050       0   15052   15053   15053       0   15055   15056   15056       0
   15058   15059   15059       0   15061   15062   15062       0   15064   15065
   15065       0   15067   15068   15068       0   15070   15071   15071       0
   15073   15074   15074       0   15076   15077   15077       0   15079   15080
   15080       0   15082   15083   15083       0   15085   15086   15086       0
   15088   15089   15089       0   15091   15092   15092       0   15094   15095
   15095       0   15097   15098   15098       0   15100   15101   15101       0
   15103   15104   15104       0   15106   15107   15107       0   15109   15110
   15110       0   15112   15113   15113       0   15115   15116   15116       0
   15118   15119   15119       0   15121   15122   15122       0   15124   15125
   15125       0   15127   15128   15128       0   15130   15131   15131       0
   15133   15134   15134       0   15136   15137   15137       0   15139   15140
   15140       0   15142   15143   15143       0   15145   15146   15146       0
   15148   15149   15149       0   15151   15152   15152       0   15154   15155
   15155       0   15157   15158   15158       0   15160   15161   15161       0
   15163   15164   15164       0   15166   15167   15167       0   15169   15170
   15170       0   15172   15173   15173       0   15175   15176   15176       0
   15178   15179   15179       0   15181   15182   15182       0   15184   15185
   15185       0   15187   15188   15188       0   15190   15191   15191       0
   15193   15194   15194       0   15196   15197   15197       0   15199   15200
   15200       0   15202   15203   15203       0   15205   15206   15206       0
   15208   15209   15209       0   15211   15212   15212       0   15214   15215
   15215       0   15217   15218   15218       0   15220   15221   15221       0
   15223   15224   15224       0   15226   15227   15227       0   15229   15230
   15230       0   15232   15233   15233       0   15235   15236   15236       0
   15238   15239   15239       0   15241   15242   15242       0   15244   15245
   15245       0   15247   15248   15248       0   15250   15251   15251       0
   15253   15254   15254       0   15256   15257   15257       0   15259   15260
   15260       0   15262   15263   15263       0   15265   15266   15266       0
   15268   15269   15269       0   15271   15272   15272       0   15274   15275
   15275       0   15277   15278   15278       0   15280   15281   15281       0
   15283   15284   15284       0   15286   15287   15287       0   15289   15290
   15290       0   15292   15293   15293       0   15295   15296   15296       0
   15298   15299   15299       0   15301   15302   15302       0   15304   15305
   15305       0   15307   15308   15308       0   15310   15311   15311       0
   15313   15314   15314       0   15316   15317   15317       0   15319   15320
   15320       0   15322   15323   15323       0   15325   15326   15326       0
   15328   15329   15329       0   15331   15332   15332       0   15334   15335
   15335       0   15337   15338   15338       0   15340   15341   15341       0
   15343   15344   15344       0   15346   15347   15347       0   15349   15350
   15350       0   15352   15353   15353       0   15355   15356   15356       0
   15358   15359   15359       0   15361   15362   15362       0   15364   15365
   15365       0   15367   15368   15368       0   15370   15371   15371       0
   15373   15374   15374       0   15376   15377   15377       0   15379   15380
   15380       0   15382   15383   15383       0   15385   15386   15386       0
   15388   15389   15389       0   15391   15392   15392       0   15394   15395
   15395       0   15397   15398   15398       0   15400   15401   15401       0
   15403   15404   15404       0   15406   15407   15407       0   15409   15410
   15410       0   15412   15413   15413       0   15415   15416   15416       0
   15418   15419   15419       0   15421   15422   15422       0   15424   15425
   15425       0   15427   15428   15428       0   15430   15431   15431       0
   15433   15434   15434       0   15436   15437   15437       0   15439   15440
   15440       0   15442   15443   15443       0   15445   15446   15446       0
   15448   15449   15449       0   15451   15452   15452       0   15454   15455
   15455       0   15457   15458   15458       0   15460   15461   15461       0
   15463   15464   15464       0   15466   15467   15467       0   15469   15470
   15470       0   15472   15473   15473       0   15475   15476   15476       0
   15478   15479   15479       0   15481   15482   15482       0   15484   15485
   15485       0   15487   15488   15488       0   15490   15491   15491       0
   15493   15494   15494       0   15496   15497   15497       0   15499   15500
   15500       0   15502   15503   15503       0   15505   15506   15506       0
   15508   15509   15509       0   15511   15512   15512       0   15514   15515
   15515       0   15517   15518   15518       0   15520   15521   15521       0
   15523   15524   15524       0   15526   15527   15527       0   15529   15530
   15530       0   15532   15533   15533       0   15535   15536   15536       0
   15538   15539   15539       0   15541   15542   15542       0   15544   15545
   15545       0   15547   15548   15548       0   15550   15551   15551       0
   15553   15554   15554       0   15556   15557   15557       0   15559   15560
   15560       0   15562   15563   15563       0   15565   15566   15566       0
   15568   15569   15569       0   15571   15572   15572       0   15574   15575
   15575       0   15577   15578   15578       0   15580   15581   15581       0
   15583   15584   15584       0   15586   15587   15587       0   15589   15590
   15590       0   15592   15593   15593       0   15595   15596   15596       0
   15598   15599   15599       0   15601   15602   15602       0   15604   15605
   15605       0   15607   15608   15608       0   15610   15611   15611       0
   15613   15614   15614       0   15616   15617   15617       0   15619   15620
   15620       0   15622   15623   15623       0   15625   15626   15626       0
   15628   15629   15629       0   15631   15632   15632       0   15634   15635
   15635       0   15637   15638   15638       0   15640   15641   15641       0
   15643   15644   15644       0   15646   15647   15647       0   15649   15650
   15650       0   15652   15653   15653       0   15655   15656   15656       0
   15658   15659   15659       0   15661   15662   15662       0   15664   15665
   15665       0   15667   15668   15668       0   15670   15671   15671       0
   15673   15674   15674       0   15676   15677   15677       0   15679   15680
   15680       0   15682   15683   15683       0   15685   15686   15686       0
   15688   15689   15689       0   15691   15692   15692       0   15694   15695
   15695       0   15697   15698   15698       0   15700   15701   15701       0
   15703   15704   15704       0   15706   15707   15707       0   15709   15710
   15710       0   15712   15713   15713       0   15715   15716   15716       0
   15718   15719   15719       0   15721   15722   15722       0   15724   15725
   15725       0   15727   15728   15728       0   15730   15731   15731       0
   15733   15734   15734       0   15736   15737   15737       0   15739   15740
   15740       0   15742   15743   15743       0   15745   15746   15746       0
   15748   15749   15749       0   15751   15752   15752       0   15754   15755
   15755       0   15757   15758   15758       0   15760   15761   15761       0
   15763   15764   15764       0   15766   15767   15767       0   15769   15770
   15770       0   15772   15773   15773       0   15775   15776   15776       0
   15778   15779   15779       0   15781   15782   15782       0   15784   15785
   15785       0   15787   15788   15788       0   15790   15791   15791       0
   15793   15794   15794       0   15796   15797   15797       0   15799   15800
   15800       0   15802   15803   15803       0   15805   15806   15806       0
   15808   15809   15809       0   15811   15812   15812       0   15814   15815
   15815       0   15817   15818   15818       0   15820   15821   15821       0
   15823   15824   15824       0   15826   15827   15827       0   15829   15830
   15830       0   15832   15833   15833       0   15835   15836   15836       0
   15838   15839   15839       0   15841   15842   15842       0   15844   15845
   15845       0   15847   15848   15848       0   15850   15851   15851       0
   15853   15854   15854       0   15856   15857   15857       0   15859   15860
   15860       0   15862   15863   15863       0   15865   15866   15866       0
   15868   15869   15869       0   15871   15872   15872       0   15874   15875
   15875       0   15877   15878   15878       0   15880   15881   15881       0
   15883   15884   15884       0   15886   15887   15887       0   15889   15890
   15890       0   15892   15893   15893       0   15895   15896   15896       0
   15898   15899   15899       0   15901   15902   15902       0   15904   15905
   15905       0   15907   15908   15908       0   15910   15911   15911       0
   15913   15914   15914       0   15916   15917   15917       0   15919   15920
   15920       0   15922   15923   15923       0   15925   15926   15926       0
   15928   15929   15929       0   15931   15932   15932       0   15934   15935
   15935       0   15937   15938   15938       0   15940   15941   15941       0
   15943   15944   15944       0   15946   15947   15947       0   15949   15950
   15950       0   15952   15953   15953       0   15955   15956   15956       0
   15958   15959   15959       0   15961   15962   15962       0   15964   15965
   15965       0   15967   15968   15968       0   15970   15971   15971       0
   15973   15974   15974       0   15976   15977   15977       0   15979   15980
   15980       0   15982   15983   15983       0   15985   15986   15986       0
   15988   15989   15989       0   15991   15992   15992       0   15994   15995
   15995       0   15997   15998   15998       0   16000   16001   16001       0
   16003   16004   16004       0   16006   16007   16007       0   16009   16010
   16010       0   16012   16013   16013       0   16015   16016   16016       0
   16018   16019   16019       0   16021   16022   16022       0   16024   16025
   16025       0   16027   16028   16028       0   16030   16031   16031       0
   16033   16034   16034       0   16036   16037   16037       0   16039   16040
   16040       0   16042   16043   16043       0   16045   16046   16046       0
   16048   16049   16049       0   16051   16052   16052       0   16054   16055
   16055       0   16057   16058   16058       0   16060   16061   16061       0
   16063   16064   16064       0   16066   16067   16067       0   16069   16070
   16070       0   16072   16073   16073       0   16075   16076   16076       0
   16078   16079   16079       0   16081   16082   16082       0   16084   16085
   16085       0   16087   16088   16088       0   16090   16091   16091       0
   16093   16094   16094       0   16096   16097   16097       0   16099   16100
   16100       0   16102   16103   16103       0   16105   16106   16106       0
   16108   16109   16109       0   16111   16112   16112       0   16114   16115
   16115       0   16117   16118   16118       0   16120   16121   16121       0
   16123   16124   16124       0   16126   16127   16127       0   16129   16130
   16130       0   16132   16133   16133       0   16135   16136   16136       0
   16138   16139   16139       0   16141   16142   16142       0   16144   16145
   16145       0   16147   16148   16148       0   16150   16151   16151       0
   16153   16154   16154       0   16156   16157   16157       0   16159   16160
   16160       0   16162   16163   16163       0   16165   16166   16166       0
   16168   16169   16169       0   16171   16172   16172       0   16174   16175
   16175       0   16177   16178   16178       0   16180   16181   16181       0
   16183   16184   16184       0   16186   16187   16187       0   16189   16190
   16190       0   16192   16193   16193       0   16195   16196   16196       0
   16198   16199   16199       0   16201   16202   16202       0   16204   16205
   16205       0   16207   16208   16208       0   16210   16211   16211       0
   16213   16214   16214       0   16216   16217   16217       0   16219   16220
   16220       0   16222   16223   16223       0   16225   16226   16226       0
   16228   16229   16229       0   16231   16232   16232       0   16234   16235
   16235       0   16237   16238   16238       0   16240   16241   16241       0
   16243   16244   16244       0   16246   16247   16247       0   16249   16250
   16250       0   16252   16253   16253       0   16255   16256   16256       0
   16258   16259   16259       0   16261   16262   16262       0   16264   16265
   16265       0   16267   16268   16268       0   16270   16271   16271       0
   16273   16274   16274       0   16276   16277   16277       0   16279   16280
   16280       0   16282   16283   16283       0   16285   16286   16286       0
   16288   16289   16289       0   16291   16292   16292       0   16294   16295
   16295       0   16297   16298   16298       0   16300   16301   16301       0
   16303   16304   16304       0   16306   16307   16307       0   16309   16310
   16310       0   16312   16313   16313       0   16315   16316   16316       0
   16318   16319   16319       0   16321   16322   16322       0   16324   16325
   16325       0   16327   16328   16328       0   16330   16331   16331       0
   16333   16334   16334       0   16336   16337   16337       0   16339   16340
   16340       0   16342   16343   16343       0   16345   16346   16346       0
   16348   16349   16349       0   16351   16352   16352       0   16354   16355
   16355       0   16357   16358   16358       0   16360   16361   16361       0
   16363   16364   16364       0   16366   16367   16367       0   16369   16370
   16370       0   16372   16373   16373       0   16375   16376   16376       0
   16378   16379   16379       0   16381   16382   16382       0   16384   16385
   16385       0   16387   16388   16388       0   16390   16391   16391       0
   16393   16394   16394       0   16396   16397   16397       0   16399   16400
   16400       0   16402   16403   16403       0   16405   16406   16406       0
   16408   16409   16409       0   16411   16412   16412       0   16414   16415
   16415       0   16417   16418   16418       0   16420   16421   16421       0
   16423   16424   16424       0   16426   16427   16427       0   16429   16430
   16430       0   16432   16433   16433       0   16435   16436   16436       0
   16438   16439   16439       0   16441   16442   16442       0   16444   16445
   16445       0   16447   16448   16448       0   16450   16451   16451       0
   16453   16454   16454       0   16456   16457   16457       0   16459   16460
   16460       0   16462   16463   16463       0   16465   16466   16466       0
   16468   16469   16469       0   16471   16472   16472       0   16474   16475
   16475       0   16477   16478   16478       0   16480   16481   16481       0
   16483   16484   16484       0   16486   16487   16487       0   16489   16490
   16490       0   16492   16493   16493       0   16495   16496   16496       0
   16498   16499   16499       0   16501   16502   16502       0   16504   16505
   16505       0   16507   16508   16508       0   16510   16511   16511       0
   16513   16514   16514       0   16516   16517   16517       0   16519   16520
   16520       0   16522   16523   16523       0   16525   16526   16526       0
   16528   16529   16529       0   16531   16532   16532       0   16534   16535
   16535       0   16537   16538   16538       0   16540   16541   16541       0
   16543   16544   16544       0   16546   16547   16547       0   16549   16550
   16550       0   16552   16553   16553       0   16555   16556   16556       0
   16558   16559   16559       0   16561   16562   16562       0   16564   16565
   16565       0   16567   16568   16568       0   16570   16571   16571       0
   16573   16574   16574       0   16576   16577   16577       0   16579   16580
   16580       0   16582   16583   16583       0   16585   16586   16586       0
   16588   16589   16589       0   16591   16592   16592       0   16594   16595
   16595       0   16597   16598   16598       0   16600   16601   16601       0
   16603   16604   16604       0   16606   16607   16607       0   16609   16610
   16610       0   16612   16613   16613       0   16615   16616   16616       0
   16618   16619   16619       0   16621   16622   16622       0   16624   16625
   16625       0   16627   16628   16628       0   16630   16631   16631       0
   16633   16634   16634       0   16636   16637   16637       0   16639   16640
   16640       0   16642   16643   16643       0   16645   16646   16646       0
   16648   16649   16649       0   16651   16652   16652       0   16654   16655
   16655       0   16657   16658   16658       0   16660   16661   16661       0
   16663   16664   16664       0   16666   16667   16667       0   16669   16670
   16670       0   16672   16673   16673       0   16675   16676   16676       0
   16678   16679   16679       0   16681   16682   16682       0   16684   16685
   16685       0   16687   16688   16688       0   16690   16691   16691       0
   16693   16694   16694       0   16696   16697   16697       0   16699   16700
   16700       0   16702   16703   16703       0   16705   16706   16706       0
   16708   16709   16709       0   16711   16712   16712       0   16714   16715
   16715       0   16717   16718   16718       0   16720   16721   16721       0
   16723   16724   16724       0   16726   16727   16727       0   16729   16730
   16730       0   16732   16733   16733       0   16735   16736   16736       0
   16738   16739   16739       0   16741   16742   16742       0   16744   16745
   16745       0   16747   16748   16748       0   16750   16751   16751       0
   16753   16754   16754       0   16756   16757   16757       0   16759   16760
   16760       0   16762   16763   16763       0   16765   16766   16766       0
   16768   16769   16769       0   16771   16772   16772       0   16774   16775
   16775       0   16777   16778   16778       0   16780   16781   16781       0
   16783   16784   16784       0   16786   16787   16787       0   16789   16790
   16790       0   16792   16793   16793       0   16795   16796   16796       0
   16798   16799   16799       0   16801   16802   16802       0   16804   16805
   16805       0   16807   16808   16808       0   16810   16811   16811       0
   16813   16814   16814       0   16816   16817   16817       0   16819   16820
   16820       0   16822   16823   16823       0   16825   16826   16826       0
   16828   16829   16829       0   16831   16832   16832       0   16834   16835
   16835       0   16837   16838   16838       0   16840   16841   16841       0
   16843   16844   16844       0   16846   16847   16847       0   16849   16850
   16850       0   16852   16853   16853       0   16855   16856   16856       0
   16858   16859   16859       0   16861   16862   16862       0   16864   16865
   16865       0   16867   16868   16868       0   16870   16871   16871       0
   16873   16874   16874       0   16876   16877   16877       0   16879   16880
   16880       0   16882   16883   16883       0   16885   16886   16886       0
   16888   16889   16889       0   16891   16892   16892       0   16894   16895
   16895       0   16897   16898   16898       0   16900   16901   16901       0
   16903   16904   16904       0   16906   16907   16907       0   16909   16910
   16910       0   16912   16913   16913       0   16915   16916   16916       0
   16918   16919   16919       0   16921   16922   16922       0   16924   16925
   16925       0   16927   16928   16928       0   16930   16931   16931       0
   16933   16934   16934       0   16936   16937   16937       0   16939   16940
   16940       0   16942   16943   16943       0   16945   16946   16946       0
   16948   16949   16949       0   16951   16952   16952       0   16954   16955
   16955       0   16957   16958   16958       0   16960   16961   16961       0
   16963   16964   16964       0   16966   16967   16967       0   16969   16970
   16970       0   16972   16973   16973       0   16975   16976   16976       0
   16978   16979   16979       0   16981   16982   16982       0   16984   16985
   16985       0   16987   16988   16988       0   16990   16991   16991       0
   16993   16994   16994       0   16996   16997   16997       0   16999   17000
   17000       0   17002   17003   17003       0   17005   17006   17006       0
   17008   17009   17009       0   17011   17012   17012       0   17014   17015
   17015       0   17017   17018   17018       0   17020   17021   17021       0
   17023   17024   17024       0   17026   17027   17027       0   17029   17030
   17030       0   17032   17033   17033       0   17035   17036   17036       0
   17038   17039   17039       0   17041   17042   17042       0   17044   17045
   17045       0   17047   17048   17048       0   17050   17051   17051       0
   17053   17054   17054       0   17056   17057   17057       0   17059   17060
   17060       0   17062   17063   17063       0   17065   17066   17066       0
   17068   17069   17069       0   17071   17072   17072       0   17074   17075
   17075       0   17077   17078   17078       0   17080   17081   17081       0
   17083   17084   17084       0   17086   17087   17087       0   17089   17090
   17090       0   17092   17093   17093       0   17095   17096   17096       0
   17098   17099   17099       0   17101   17102   17102       0   17104   17105
   17105       0   17107   17108   17108       0   17110   17111   17111       0
   17113   17114   17114       0   17116   17117   17117       0   17119   17120
   17120       0   17122   17123   17123       0   17125   17126   17126       0
   17128   17129   17129       0   17131   17132   17132       0   17134   17135
   17135       0   17137   17138   17138       0   17140   17141   17141       0
   17143   17144   17144       0   17146   17147   17147       0   17149   17150
   17150       0   17152   17153   17153       0   17155   17156   17156       0
   17158   17159   17159       0   17161   17162   17162       0   17164   17165
   17165       0   17167   17168   17168       0   17170   17171   17171       0
   17173   17174   17174       0   17176   17177   17177       0   17179   17180
   17180       0   17182   17183   17183       0   17185   17186   17186       0
   17188   17189   17189       0   17191   17192   17192       0   17194   17195
   17195       0   17197   17198   17198       0   17200   17201   17201       0
   17203   17204   17204       0   17206   17207   17207       0   17209   17210
   17210       0   17212   17213   17213       0   17215   17216   17216       0
   17218   17219   17219       0   17221   17222   17222       0   17224   17225
   17225       0   17227   17228   17228       0   17230   17231   17231       0
   17233   17234   17234       0   17236   17237   17237       0   17239   17240
   17240       0   17242   17243   17243       0   17245   17246   17246       0
   17248   17249   17249       0   17251   17252   17252       0   17254   17255
   17255       0   17257   17258   17258       0   17260   17261   17261       0
   17263   17264   17264       0   17266   17267   17267       0   17269   17270
   17270       0   17272   17273   17273       0   17275   17276   17276       0
   17278   17279   17279       0   17281   17282   17282       0   17284   17285
   17285       0   17287   17288   17288       0   17290   17291   17291       0
   17293   17294   17294       0   17296   17297   17297       0   17299   17300
   17300       0   17302   17303   17303       0   17305   17306   17306       0
   17308   17309   17309       0   17311   17312   17312       0   17314   17315
   17315       0   17317   17318   17318       0   17320   17321   17321       0
   17323   17324   17324       0   17326   17327   17327       0   17329   17330
   17330       0   17332   17333   17333       0   17335   17336   17336       0
   17338   17339   17339       0   17341   17342   17342       0   17344   17345
   17345       0   17347   17348   17348       0   17350   17351   17351       0
   17353   17354   17354       0   17356   17357   17357       0   17359   17360
   17360       0   17362   17363   17363       0   17365   17366   17366       0
   17368   17369   17369       0   17371   17372   17372       0   17374   17375
   17375       0   17377   17378   17378       0   17380   17381   17381       0
   17383   17384   17384       0   17386   17387   17387       0   17389   17390
   17390       0   17392   17393   17393       0   17395   17396   17396       0
   17398   17399   17399       0   17401   17402   17402       0   17404   17405
   17405       0   17407   17408   17408       0   17410   17411   17411       0
   17413   17414   17414       0   17416   17417   17417       0   17419   17420
   17420       0   17422   17423   17423       0   17425   17426   17426       0
   17428   17429   17429       0   17431   17432   17432       0   17434   17435
   17435       0   17437   17438   17438       0   17440   17441   17441       0
   17443   17444   17444       0   17446   17447   17447       0   17449   17450
   17450       0   17452   17453   17453       0   17455   17456   17456       0
   17458   17459   17459       0   17461   17462   17462       0   17464   17465
   17465       0   17467   17468   17468       0   17470   17471   17471       0
   17473   17474   17474       0   17476   17477   17477       0   17479   17480
   17480       0   17482   17483   17483       0   17485   17486   17486       0
   17488   17489   17489       0   17491   17492   17492       0   17494   17495
   17495       0   17497   17498   17498       0   17500   17501   17501       0
   17503   17504   17504       0   17506   17507   17507       0   17509   17510
   17510       0   17512   17513   17513       0   17515   17516   17516       0
   17518   17519   17519       0   17521   17522   17522       0   17524   17525
   17525       0   17527   17528   17528       0   17530   17531   17531       0
   17533   17534   17534       0   17536   17537   17537       0   17539   17540
   17540       0   17542   17543   17543       0   17545   17546   17546       0
   17548   17549   17549       0   17551   17552   17552       0   17554   17555
   17555       0   17557   17558   17558       0   17560   17561   17561       0
   17563   17564   17564       0   17566   17567   17567       0   17569   17570
   17570       0   17572   17573   17573       0   17575   17576   17576       0
   17578   17579   17579       0   17581   17582   17582       0   17584   17585
   17585       0   17587   17588   17588       0   17590   17591   17591       0
   17593   17594   17594       0   17596   17597   17597       0   17599   17600
   17600       0   17602   17603   17603       0   17605   17606   17606       0
   17608   17609   17609       0   17611   17612   17612       0   17614   17615
   17615       0   17617   17618   17618       0   17620   17621   17621       0
   17623   17624   17624       0   17626   17627   17627       0   17629   17630
   17630       0   17632   17633   17633       0   17635   17636   17636       0
   17638   17639   17639       0   17641   17642   17642       0   17644   17645
   17645       0   17647   17648   17648       0   17650   17651   17651       0
   17653   17654   17654       0   17656   17657   17657       0   17659   17660
   17660       0   17662   17663   17663       0   17665   17666   17666       0
   17668   17669   17669       0   17671   17672   17672       0   17674   17675
   17675       0   17677   17678   17678       0   17680   17681   17681       0
   17683   17684   17684       0   17686   17687   17687       0   17689   17690
   17690       0   17692   17693   17693       0   17695   17696   17696       0
   17698   17699   17699       0   17701   17702   17702       0   17704   17705
   17705       0   17707   17708   17708       0   17710   17711   17711       0
   17713   17714   17714       0   17716   17717   17717       0   17719   17720
   17720       0   17722   17723   17723       0   17725   17726   17726       0
   17728   17729   17729       0   17731   17732   17732       0   17734   17735
   17735       0   17737   17738   17738       0   17740   17741   17741       0
   17743   17744   17744       0   17746   17747   17747       0   17749   17750
   17750       0   17752   17753   17753       0   17755   17756   17756       0
   17758   17759   17759       0   17761   17762   17762       0   17764   17765
   17765       0   17767   17768   17768       0   17770   17771   17771       0
   17773   17774   17774       0   17776   17777   17777       0   17779   17780
   17780       0   17782   17783   17783       0   17785   17786   17786       0
   17788   17789   17789       0   17791   17792   17792       0   17794   17795
   17795       0   17797   17798   17798       0   17800   17801   17801       0
   17803   17804   17804       0   17806   17807   17807       0   17809   17810
   17810       0   17812   17813   17813       0   17815   17816   17816       0
   17818   17819   17819       0   17821   17822   17822       0   17824   17825
   17825       0   17827   17828   17828       0   17830   17831   17831       0
   17833   17834   17834       0   17836   17837   17837       0   17839   17840
   17840       0   17842   17843   17843       0   17845   17846   17846       0
   17848   17849   17849       0   17851   17852   17852       0   17854   17855
   17855       0   17857   17858   17858       0   17860   17861   17861       0
   17863   17864   17864       0   17866   17867   17867       0   17869   17870
   17870       0   17872   17873   17873       0   17875   17876   17876       0
   17878   17879   17879       0   17881   17882   17882       0   17884   17885
   17885       0   17887   17888   17888       0   17890   17891   17891       0
   17893   17894   17894       0   17896   17897   17897       0   17899   17900
   17900       0   17902   17903   17903       0   17905   17906   17906       0
   17908   17909   17909       0   17911   17912   17912       0   17914   17915
   17915       0   17917   17918   17918       0   17920   17921   17921       0
   17923   17924   17924       0   17926   17927   17927       0   17929   17930
   17930       0   17932   17933   17933       0   17935   17936   17936       0
   17938   17939   17939       0   17941   17942   17942       0   17944   17945
   17945       0   17947   17948   17948       0   17950   17951   17951       0
   17953   17954   17954       0   17956   17957   17957       0   17959   17960
   17960       0   17962   17963   17963       0   17965   17966   17966       0
   17968   17969   17969       0   17971   17972   17972       0   17974   17975
   17975       0   17977   17978   17978       0   17980   17981   17981       0
   17983   17984   17984       0   17986   17987   17987       0   17989   17990
   17990       0   17992   17993   17993       0   17995   17996   17996       0
   17998   17999   17999       0   18001   18002   18002       0   18004   18005
   18005       0   18007   18008   18008       0   18010   18011   18011       0
   18013   18014   18014       0   18016   18017   18017       0   18019   18020
   18020       0   18022   18023   18023       0   18025   18026   18026       0
   18028   18029   18029       0   18031   18032   18032       0   18034   18035
   18035       0   18037   18038   18038       0   18040   18041   18041       0
   18043   18044   18044       0   18046   18047   18047       0   18049   18050
   18050       0   18052   18053   18053       0   18055   18056   18056       0
   18058   18059   18059       0   18061   18062   18062       0   18064   18065
   18065       0   18067   18068   18068       0   18070   18071   18071       0
   18073   18074   18074       0   18076   18077   18077       0   18079   18080
   18080       0   18082   18083   18083       0   18085   18086   18086       0
   18088   18089   18089       0   18091   18092   18092       0   18094   18095
   18095       0   18097   18098   18098       0   18100   18101   18101       0
   18103   18104   18104       0   18106   18107   18107       0   18109   18110
   18110       0   18112   18113   18113       0   18115   18116   18116       0
   18118   18119   18119       0   18121   18122   18122       0   18124   18125
   18125       0   18127   18128   18128       0   18130   18131   18131       0
   18133   18134   18134       0   18136   18137   18137       0   18139   18140
   18140       0   18142   18143   18143       0   18145   18146   18146       0
   18148   18149   18149       0   18151   18152   18152       0   18154   18155
   18155       0   18157   18158   18158       0   18160   18161   18161       0
   18163   18164   18164       0   18166   18167   18167       0   18169   18170
   18170       0   18172   18173   18173       0   18175   18176   18176       0
   18178   18179   18179       0   18181   18182   18182       0   18184   18185
   18185       0   18187   18188   18188       0   18190   18191   18191       0
   18193   18194   18194       0   18196   18197   18197       0   18199   18200
   18200       0   18202   18203   18203       0   18205   18206   18206       0
   18208   18209   18209       0   18211   18212   18212       0   18214   18215
   18215       0   18217   18218   18218       0   18220   18221   18221       0
   18223   18224   18224       0   18226   18227   18227       0   18229   18230
   18230       0   18232   18233   18233       0   18235   18236   18236       0
   18238   18239   18239       0   18241   18242   18242       0   18244   18245
   18245       0   18247   18248   18248       0   18250   18251   18251       0
   18253   18254   18254       0   18256   18257   18257       0   18259   18260
   18260       0   18262   18263   18263       0   18265   18266   18266       0
   18268   18269   18269       0   18271   18272   18272       0   18274   18275
   18275       0   18277   18278   18278       0   18280   18281   18281       0
   18283   18284   18284       0   18286   18287   18287       0   18289   18290
   18290       0   18292   18293   18293       0   18295   18296   18296       0
   18298   18299   18299       0   18301   18302   18302       0   18304   18305
   18305       0   18307   18308   18308       0   18310   18311   18311       0
   18313   18314   18314       0   18316   18317   18317       0   18319   18320
   18320       0   18322   18323   18323       0   18325   18326   18326       0
   18328   18329   18329       0   18331   18332   18332       0   18334   18335
   18335       0   18337   18338   18338       0   18340   18341   18341       0
   18343   18344   18344       0   18346   18347   18347       0   18349   18350
   18350       0   18352   18353   18353       0   18355   18356   18356       0
   18358   18359   18359       0   18361   18362   18362       0   18364   18365
   18365       0   18367   18368   18368       0   18370   18371   18371       0
   18373   18374   18374       0   18376   18377   18377       0   18379   18380
   18380       0   18382   18383   18383       0   18385   18386   18386       0
   18388   18389   18389       0   18391   18392   18392       0   18394   18395
   18395       0   18397   18398   18398       0   18400   18401   18401       0
   18403   18404   18404       0   18406   18407   18407       0   18409   18410
   18410       0   18412   18413   18413       0   18415   18416   18416       0
   18418   18419   18419       0   18421   18422   18422       0   18424   18425
   18425       0   18427   18428   18428       0   18430   18431   18431       0
   18433   18434   18434       0   18436   18437   18437       0   18439   18440
   18440       0   18442   18443   18443       0   18445   18446   18446       0
   18448   18449   18449       0   18451   18452   18452       0   18454   18455
   18455       0   18457   18458   18458       0   18460   18461   18461       0
   18463   18464   18464       0   18466   18467   18467       0   18469   18470
   18470       0   18472   18473   18473       0   18475   18476   18476       0
   18478   18479   18479       0   18481   18482   18482       0   18484   18485
   18485       0   18487   18488   18488       0   18490   18491   18491       0
   18493   18494   18494       0   18496   18497   18497       0   18499   18500
   18500       0   18502   18503   18503       0   18505   18506   18506       0
   18508   18509   18509       0   18511   18512   18512       0   18514   18515
   18515       0   18517   18518   18518       0   18520   18521   18521       0
   18523   18524   18524       0   18526   18527   18527       0   18529   18530
   18530       0   18532   18533   18533       0   18535   18536   18536       0
   18538   18539   18539       0   18541   18542   18542       0   18544   18545
   18545       0   18547   18548   18548       0   18550   18551   18551       0
   18553   18554   18554       0   18556   18557   18557       0   18559   18560
   18560       0   18562   18563   18563       0   18565   18566   18566       0
   18568   18569   18569       0   18571   18572   18572       0   18574   18575
   18575       0   18577   18578   18578       0   18580   18581   18581       0
   18583   18584   18584       0   18586   18587   18587       0   18589   18590
   18590       0   18592   18593   18593       0   18595   18596   18596       0
   18598   18599   18599       0   18601   18602   18602       0   18604   18605
   18605       0   18607   18608   18608       0   18610   18611   18611       0
   18613   18614   18614       0   18616   18617   18617       0   18619   18620
   18620       0   18622   18623   18623       0   18625   18626   18626       0
   18628   18629   18629       0   18631   18632   18632       0   18634   18635
   18635       0   18637   18638   18638       0   18640   18641   18641       0
   18643   18644   18644       0   18646   18647   18647       0   18649   18650
   18650       0   18652   18653   18653       0   18655   18656   18656       0
   18658   18659   18659       0   18661   18662   18662       0   18664   18665
   18665       0   18667   18668   18668       0   18670   18671   18671       0
   18673   18674   18674       0   18676   18677   18677       0   18679   18680
   18680       0   18682   18683   18683       0   18685   18686   18686       0
   18688   18689   18689       0   18691   18692   18692       0   18694   18695
   18695       0   18697   18698   18698       0   18700   18701   18701       0
   18703   18704   18704       0   18706   18707   18707       0   18709   18710
   18710       0   18712   18713   18713       0   18715   18716   18716       0
   18718   18719   18719       0   18721   18722   18722       0   18724   18725
   18725       0   18727   18728   18728       0   18730   18731   18731       0
   18733   18734   18734       0   18736   18737   18737       0   18739   18740
   18740       0   18742   18743   18743       0   18745   18746   18746       0
   18748   18749   18749       0   18751   18752   18752       0   18754   18755
   18755       0   18757   18758   18758       0   18760   18761   18761       0
   18763   18764   18764       0   18766   18767   18767       0   18769   18770
   18770       0   18772   18773   18773       0   18775   18776   18776       0
   18778   18779   18779       0   18781   18782   18782       0   18784   18785
   18785       0   18787   18788   18788       0   18790   18791   18791       0
   18793   18794   18794       0   18796   18797   18797       0   18799   18800
   18800       0   18802   18803   18803       0   18805   18806   18806       0
   18808   18809   18809       0   18811   18812   18812       0   18814   18815
   18815       0   18817   18818   18818       0   18820   18821   18821       0
   18823   18824   18824       0   18826   18827   18827       0   18829   18830
   18830       0   18832   18833   18833       0   18835   18836   18836       0
   18838   18839   18839       0   18841   18842   18842       0   18844   18845
   18845       0   18847   18848   18848       0   18850   18851   18851       0
   18853   18854   18854       0   18856   18857   18857       0   18859   18860
   18860       0   18862   18863   18863       0   18865   18866   18866       0
   18868   18869   18869       0   18871   18872   18872       0   18874   18875
   18875       0   18877   18878   18878       0   18880   18881   18881       0
   18883   18884   18884       0   18886   18887   18887       0   18889   18890
   18890       0   18892   18893   18893       0   18895   18896   18896       0
   18898   18899   18899       0   18901   18902   18902       0   18904   18905
   18905       0   18907   18908   18908       0   18910   18911   18911       0
   18913   18914   18914       0   18916   18917   18917       0   18919   18920
   18920       0   18922   18923   18923       0   18925   18926   18926       0
   18928   18929   18929       0   18931   18932   18932       0   18934   18935
   18935       0   18937   18938   18938       0   18940   18941   18941       0
   18943   18944   18944       0   18946   18947   18947       0   18949   18950
   18950       0   18952   18953   18953       0   18955   18956   18956       0
   18958   18959   18959       0   18961   18962   18962       0   18964   18965
   18965       0   18967   18968   18968       0   18970   18971   18971       0
   18973   18974   18974       0   18976   18977   18977       0   18979   18980
   18980       0   18982   18983   18983       0   18985   18986   18986       0
   18988   18989   18989       0   18991   18992   18992       0   18994   18995
   18995       0   18997   18998   18998       0   19000   19001   19001       0
   19003   19004   19004       0   19006   19007   19007       0   19009   19010
   19010       0   19012   19013   19013       0   19015   19016   19016       0
   19018   19019   19019       0   19021   19022   19022       0   19024   19025
   19025       0   19027   19028   19028       0   19030   19031   19031       0
   19033   19034   19034       0   19036   19037   19037       0   19039   19040
   19040       0   19042   19043   19043       0   19045   19046   19046       0
   19048   19049   19049       0   19051   19052   19052       0   19054   19055
   19055       0   19057   19058   19058       0   19060   19061   19061       0
   19063   19064   19064       0   19066   19067   19067       0   19069   19070
   19070       0   19072   19073   19073       0   19075   19076   19076       0
   19078   19079   19079       0   19081   19082   19082       0   19084   19085
   19085       0   19087   19088   19088       0   19090   19091   19091       0
   19093   19094   19094       0   19096   19097   19097       0   19099   19100
   19100       0   19102   19103   19103       0   19105   19106   19106       0
   19108   19109   19109       0   19111   19112   19112       0   19114   19115
   19115       0   19117   19118   19118       0   19120   19121   19121       0
   19123   19124   19124       0   19126   19127   19127       0   19129   19130
   19130       0   19132   19133   19133       0   19135   19136   19136       0
   19138   19139   19139       0   19141   19142   19142       0   19144   19145
   19145       0   19147   19148   19148       0   19150   19151   19151       0
   19153   19154   19154       0   19156   19157   19157       0   19159   19160
   19160       0   19162   19163   19163       0   19165   19166   19166       0
   19168   19169   19169       0   19171   19172   19172       0   19174   19175
   19175       0   19177   19178   19178       0   19180   19181   19181       0
   19183   19184   19184       0   19186   19187   19187       0   19189   19190
   19190       0   19192   19193   19193       0   19195   19196   19196       0
   19198   19199   19199       0   19201   19202   19202       0   19204   19205
   19205       0   19207   19208   19208       0   19210   19211   19211       0
   19213   19214   19214       0   19216   19217   19217       0   19219   19220
   19220       0   19222   19223   19223       0   19225   19226   19226       0
   19228   19229   19229       0   19231   19232   19232       0   19234   19235
   19235       0   19237   19238   19238       0   19240   19241   19241       0
   19243   19244   19244       0   19246   19247   19247       0   19249   19250
   19250       0   19252   19253   19253       0   19255   19256   19256       0
   19258   19259   19259       0   19261   19262   19262       0   19264   19265
   19265       0   19267   19268   19268       0   19270   19271   19271       0
   19273   19274   19274       0   19276   19277   19277       0   19279   19280
   19280       0   19282   19283   19283       0   19285   19286   19286       0
   19288   19289   19289       0   19291   19292   19292       0   19294   19295
   19295       0   19297   19298   19298       0   19300   19301   19301       0
   19303   19304   19304       0   19306   19307   19307       0   19309   19310
   19310       0   19312   19313   19313       0   19315   19316   19316       0
   19318   19319   19319       0   19321   19322   19322       0   19324   19325
   19325       0   19327   19328   19328       0   19330   19331   19331       0
   19333   19334   19334       0   19336   19337   19337       0   19339   19340
   19340       0   19342   19343   19343       0   19345   19346   19346       0
   19348   19349   19349       0   19351   19352   19352       0   19354   19355
   19355       0   19357   19358   19358       0   19360   19361   19361       0
   19363   19364   19364       0   19366   19367   19367       0   19369   19370
   19370       0   19372   19373   19373       0   19375   19376   19376       0
   19378   19379   19379       0   19381   19382   19382       0   19384   19385
   19385       0   19387   19388   19388       0   19390   19391   19391       0
   19393   19394   19394       0   19396   19397   19397       0   19399   19400
   19400       0   19402   19403   19403       0   19405   19406   19406       0
   19408   19409   19409       0   19411   19412   19412       0   19414   19415
   19415       0   19417   19418   19418       0   19420   19421   19421       0
   19423   19424   19424       0   19426   19427   19427       0   19429   19430
   19430       0   19432   19433   19433       0   19435   19436   19436       0
   19438   19439   19439       0   19441   19442   19442       0   19444   19445
   19445       0   19447   19448   19448       0   19450   19451   19451       0
   19453   19454   19454       0   19456   19457   19457       0   19459   19460
   19460       0   19462   19463   19463       0   19465   19466   19466       0
   19468   19469   19469       0   19471   19472   19472       0   19474   19475
   19475       0   19477   19478   19478       0   19480   19481   19481       0
   19483   19484   19484       0   19486   19487   19487       0   19489   19490
   19490       0   19492   19493   19493       0   19495   19496   19496       0
   19498   19499   19499       0   19501   19502   19502       0   19504   19505
   19505       0   19507   19508   19508       0   19510   19511   19511       0
   19513   19514   19514       0   19516   19517   19517       0   19519   19520
   19520       0   19522   19523   19523       0   19525   19526   19526       0
   19528   19529   19529       0   19531   19532   19532       0   19534   19535
   19535       0   19537   19538   19538       0   19540   19541   19541       0
   19543   19544   19544       0   19546   19547   19547       0   19549   19550
   19550       0   19552   19553   19553       0   19555   19556   19556       0
   19558   19559   19559       0   19561   19562   19562       0   19564   19565
   19565       0   19567   19568   19568       0   19570   19571   19571       0
   19573   19574   19574       0   19576   19577   19577       0   19579   19580
   19580       0   19582   19583   19583       0   19585   19586   19586       0
   19588   19589   19589       0   19591   19592   19592       0   19594   19595
   19595       0   19597   19598   19598       0   19600   19601   19601       0
   19603   19604   19604       0   19606   19607   19607       0   19609   19610
   19610       0   19612   19613   19613       0   19615   19616   19616       0
   19618   19619   19619       0   19621   19622   19622       0   19624   19625
   19625       0   19627   19628   19628       0   19630   19631   19631       0
   19633   19634   19634       0   19636   19637   19637       0   19639   19640
   19640       0   19642   19643   19643       0   19645   19646   19646       0
   19648   19649   19649       0   19651   19652   19652       0   19654   19655
   19655       0   19657   19658   19658       0   19660   19661   19661       0
   19663   19664   19664       0   19666   19667   19667       0   19669   19670
   19670       0   19672   19673   19673       0   19675   19676   19676       0
   19678   19679   19679       0   19681   19682   19682       0   19684   19685
   19685       0   19687   19688   19688       0   19690   19691   19691       0
   19693   19694   19694       0   19696   19697   19697       0   19699   19700
   19700       0   19702   19703   19703       0   19705   19706   19706       0
   19708   19709   19709       0   19711   19712   19712       0   19714   19715
   19715       0   19717   19718   19718       0   19720   19721   19721       0
   19723   19724   19724       0   19726   19727   19727       0   19729   19730
   19730       0   19732   19733   19733       0   19735   19736   19736       0
   19738   19739   19739       0   19741   19742   19742       0   19744   19745
   19745       0   19747   19748   19748       0   19750   19751   19751       0
   19753   19754   19754       0   19756   19757   19757       0   19759   19760
   19760       0   19762   19763   19763       0   19765   19766   19766       0
   19768   19769   19769       0   19771   19772   19772       0   19774   19775
   19775       0   19777   19778   19778       0   19780   19781   19781       0
   19783   19784   19784       0   19786   19787   19787       0   19789   19790
   19790       0   19792   19793   19793       0   19795   19796   19796       0
   19798   19799   19799       0   19801   19802   19802       0   19804   19805
   19805       0   19807   19808   19808       0   19810   19811   19811       0
   19813   19814   19814       0   19816   19817   19817       0   19819   19820
   19820       0   19822   19823   19823       0   19825   19826   19826       0
   19828   19829   19829       0   19831   19832   19832       0   19834   19835
   19835       0   19837   19838   19838       0   19840   19841   19841       0
   19843   19844   19844       0   19846   19847   19847       0   19849   19850
   19850       0   19852   19853   19853       0   19855   19856   19856       0
   19858   19859   19859       0   19861   19862   19862       0   19864   19865
   19865       0   19867   19868   19868       0   19870   19871   19871       0
   19873   19874   19874       0   19876   19877   19877       0   19879   19880
   19880       0   19882   19883   19883       0   19885   19886   19886       0
   19888   19889   19889       0   19891   19892   19892       0   19894   19895
   19895       0   19897   19898   19898       0   19900   19901   19901       0
   19903   19904   19904       0   19906   19907   19907       0   19909   19910
   19910       0   19912   19913   19913       0   19915   19916   19916       0
   19918   19919   19919       0   19921   19922   19922       0   19924   19925
   19925       0   19927   19928   19928       0   19930   19931   19931       0
   19933   19934   19934       0   19936   19937   19937       0   19939   19940
   19940       0   19942   19943   19943       0   19945   19946   19946       0
   19948   19949   19949       0   19951   19952   19952       0   19954   19955
   19955       0   19957   19958   19958       0   19960   19961   19961       0
   19963   19964   19964       0   19966   19967   19967       0   19969   19970
   19970       0   19972   19973   19973       0   19975   19976   19976       0
   19978   19979   19979       0   19981   19982   19982       0   19984   19985
   19985       0   19987   19988   19988       0   19990   19991   19991       0
   19993   19994   19994       0   19996   19997   19997       0   19999   20000
   20000       0   20002   20003   20003       0   20005   20006   20006       0
   20008   20009   20009       0   20011   20012   20012       0   20014   20015
   20015       0   20017   20018   20018       0   20020   20021   20021       0
   20023   20024   20024       0   20026   20027   20027       0   20029   20030
   20030       0   20032   20033   20033       0   20035   20036   20036       0
   20038   20039   20039       0   20041   20042   20042       0   20044   20045
   20045       0   20047   20048   20048       0   20050   20051   20051       0
   20053   20054   20054       0   20056   20057   20057       0   20059   20060
   20060       0   20062   20063   20063       0   20065   20066   20066       0
   20068   20069   20069       0   20071   20072   20072       0   20074   20075
   20075       0   20077   20078   20078       0   20080   20081   20081       0
   20083   20084   20084       0   20086   20087   20087       0   20089   20090
   20090       0   20092   20093   20093       0   20095   20096   20096       0
   20098   20099   20099       0   20101   20102   20102       0   20104   20105
   20105       0   20107   20108   20108       0   20110   20111   20111       0
   20113   20114   20114       0   20116   20117   20117       0   20119   20120
   20120       0   20122   20123   20123       0   20125   20126   20126       0
   20128   20129   20129       0   20131   20132   20132       0   20134   20135
   20135       0   20137   20138   20138       0   20140   20141   20141       0
   20143   20144   20144       0   20146   20147   20147       0   20149   20150
   20150       0   20152   20153   20153       0   20155   20156   20156       0
   20158   20159   20159       0   20161   20162   20162       0   20164   20165
   20165       0   20167   20168   20168       0   20170   20171   20171       0
   20173   20174   20174       0   20176   20177   20177       0   20179   20180
   20180       0   20182   20183   20183       0   20185   20186   20186       0
   20188   20189   20189       0   20191   20192   20192       0   20194   20195
   20195       0   20197   20198   20198       0   20200   20201   20201       0
   20203   20204   20204       0   20206   20207   20207       0   20209   20210
   20210       0   20212   20213   20213       0   20215   20216   20216       0
   20218   20219   20219       0   20221   20222   20222       0   20224   20225
   20225       0   20227   20228   20228       0   20230   20231   20231       0
   20233   20234   20234       0   20236   20237   20237       0   20239   20240
   20240       0   20242   20243   20243       0   20245   20246   20246       0
   20248   20249   20249       0   20251   20252   20252       0   20254   20255
   20255       0   20257   20258   20258       0   20260   20261   20261       0
   20263   20264   20264       0   20266   20267   20267       0   20269   20270
   20270       0   20272   20273   20273       0   20275   20276   20276       0
   20278   20279   20279       0   20281   20282   20282       0   20284   20285
   20285       0   20287   20288   20288       0   20290   20291   20291       0
   20293   20294   20294       0   20296   20297   20297       0   20299   20300
   20300       0   20302   20303   20303       0   20305   20306   20306       0
   20308   20309   20309       0   20311   20312   20312       0   20314   20315
   20315       0   20317   20318   20318       0   20320   20321   20321       0
   20323   20324   20324       0   20326   20327   20327       0   20329   20330
   20330       0   20332   20333   20333       0   20335   20336   20336       0
   20338   20339   20339       0   20341   20342   20342       0   20344   20345
   20345       0   20347   20348   20348       0   20350   20351   20351       0
   20353   20354   20354       0   20356   20357   20357       0   20359   20360
   20360       0   20362   20363   20363       0   20365   20366   20366       0
   20368   20369   20369       0   20371   20372   20372       0   20374   20375
   20375       0   20377   20378   20378       0   20380   20381   20381       0
   20383   20384   20384       0   20386   20387   20387       0   20389   20390
   20390       0   20392   20393   20393       0   20395   20396   20396       0
   20398   20399   20399       0   20401   20402   20402       0   20404   20405
   20405       0   20407   20408   20408       0   20410   20411   20411       0
   20413   20414   20414       0   20416   20417   20417       0   20419   20420
   20420       0   20422   20423   20423       0   20425   20426   20426       0
   20428   20429   20429       0   20431   20432   20432       0   20434   20435
   20435       0   20437   20438   20438       0   20440   20441   20441       0
   20443   20444   20444       0   20446   20447   20447       0   20449   20450
   20450       0   20452   20453   20453       0   20455   20456   20456       0
   20458   20459   20459       0   20461   20462   20462       0   20464   20465
   20465       0   20467   20468   20468       0   20470   20471   20471       0
   20473   20474   20474       0   20476   20477   20477       0   20479   20480
   20480       0   20482   20483   20483       0   20485   20486   20486       0
   20488   20489   20489       0   20491   20492   20492       0   20494   20495
   20495       0   20497   20498   20498       0   20500   20501   20501       0
   20503   20504   20504       0   20506   20507   20507       0   20509   20510
   20510       0   20512   20513   20513       0   20515   20516   20516       0
   20518   20519   20519       0   20521   20522   20522       0   20524   20525
   20525       0   20527   20528   20528       0   20530   20531   20531       0
   20533   20534   20534       0   20536   20537   20537       0   20539   20540
   20540       0   20542   20543   20543       0   20545   20546   20546       0
   20548   20549   20549       0   20551   20552   20552       0   20554   20555
   20555       0   20557   20558   20558       0   20560   20561   20561       0
   20563   20564   20564       0   20566   20567   20567       0   20569   20570
   20570       0   20572   20573   20573       0   20575   20576   20576       0
   20578   20579   20579       0   20581   20582   20582       0   20584   20585
   20585       0   20587   20588   20588       0   20590   20591   20591       0
   20593   20594   20594       0   20596   20597   20597       0   20599   20600
   20600       0   20602   20603   20603       0   20605   20606   20606       0
   20608   20609   20609       0   20611   20612   20612       0   20614   20615
   20615       0   20617   20618   20618       0   20620   20621   20621       0
   20623   20624   20624       0   20626   20627   20627       0   20629   20630
   20630       0   20632   20633   20633       0   20635   20636   20636       0
   20638   20639   20639       0   20641   20642   20642       0   20644   20645
   20645       0   20647   20648   20648       0   20650   20651   20651       0
   20653   20654   20654       0   20656   20657   20657       0   20659   20660
   20660       0   20662   20663   20663       0   20665   20666   20666       0
   20668   20669   20669       0   20671   20672   20672       0   20674   20675
   20675       0   20677   20678   20678       0   20680   20681   20681       0
   20683   20684   20684       0   20686   20687   20687       0   20689   20690
   20690       0   20692   20693   20693       0   20695   20696   20696       0
   20698   20699   20699       0   20701   20702   20702       0   20704   20705
   20705       0   20707   20708   20708       0   20710   20711   20711       0
   20713   20714   20714       0   20716   20717   20717       0   20719   20720
   20720       0   20722   20723   20723       0   20725   20726   20726       0
   20728   20729   20729       0   20731   20732   20732       0   20734   20735
   20735       0   20737   20738   20738       0   20740   20741   20741       0
   20743   20744   20744       0   20746   20747   20747       0   20749   20750
   20750       0   20752   20753   20753       0   20755   20756   20756       0
   20758   20759   20759       0   20761   20762   20762       0   20764   20765
   20765       0   20767   20768   20768       0   20770   20771   20771       0
   20773   20774   20774       0   20776   20777   20777       0   20779   20780
   20780       0   20782   20783   20783       0   20785   20786   20786       0
   20788   20789   20789       0   20791   20792   20792       0   20794   20795
   20795       0   20797   20798   20798       0   20800   20801   20801       0
   20803   20804   20804       0   20806   20807   20807       0   20809   20810
   20810       0   20812   20813   20813       0   20815   20816   20816       0
   20818   20819   20819       0   20821   20822   20822       0   20824   20825
   20825       0   20827   20828   20828       0   20830   20831   20831       0
   20833   20834   20834       0   20836   20837   20837       0   20839   20840
   20840       0   20842   20843   20843       0   20845   20846   20846       0
   20848   20849   20849       0   20851   20852   20852       0   20854   20855
   20855       0   20857   20858   20858       0   20860   20861   20861       0
   20863   20864   20864       0   20866   20867   20867       0   20869   20870
   20870       0   20872   20873   20873       0   20875   20876   20876       0
   20878   20879   20879       0   20881   20882   20882       0   20884   20885
   20885       0   20887   20888   20888       0   20890   20891   20891       0
   20893   20894   20894       0   20896   20897   20897       0   20899   20900
   20900       0   20902   20903   20903       0   20905   20906   20906       0
   20908   20909   20909       0   20911   20912   20912       0   20914   20915
   20915       0   20917   20918   20918       0   20920   20921   20921       0
   20923   20924   20924       0   20926   20927   20927       0   20929   20930
   20930       0   20932   20933   20933       0   20935   20936   20936       0
   20938   20939   20939       0   20941   20942   20942       0   20944   20945
   20945       0   20947   20948   20948       0   20950   20951   20951       0
   20953   20954   20954       0   20956   20957   20957       0   20959   20960
   20960       0   20962   20963   20963       0   20965   20966   20966       0
   20968   20969   20969       0   20971   20972   20972       0   20974   20975
   20975       0   20977   20978   20978       0   20980   20981   20981       0
   20983   20984   20984       0   20986   20987   20987       0   20989   20990
   20990       0   20992   20993   20993       0   20995   20996   20996       0
   20998   20999   20999       0   21001   21002   21002       0   21004   21005
   21005       0   21007   21008   21008       0   21010   21011   21011       0
   21013   21014   21014       0   21016   21017   21017       0   21019   21020
   21020       0   21022   21023   21023       0   21025   21026   21026       0
   21028   21029   21029       0   21031   21032   21032       0   21034   21035
   21035       0   21037   21038   21038       0   21040   21041   21041       0
   21043   21044   21044       0   21046   21047   21047       0   21049   21050
   21050       0   21052   21053   21053       0   21055   21056   21056       0
   21058   21059   21059       0   21061   21062   21062       0   21064   21065
   21065       0   21067   21068   21068       0   21070   21071   21071       0
   21073   21074   21074       0   21076   21077   21077       0   21079   21080
   21080       0   21082   21083   21083       0   21085   21086   21086       0
   21088   21089   21089       0   21091   21092   21092       0   21094   21095
   21095       0   21097   21098   21098       0   21100   21101   21101       0
   21103   21104   21104       0   21106   21107   21107       0   21109   21110
   21110       0   21112   21113   21113       0   21115   21116   21116       0
   21118   21119   21119       0   21121   21122   21122       0   21124   21125
   21125       0   21127   21128   21128       0   21130   21131   21131       0
   21133   21134   21134       0   21136   21137   21137       0   21139   21140
   21140       0   21142   21143   21143       0   21145   21146   21146       0
   21148   21149   21149       0   21151   21152   21152       0   21154   21155
   21155       0   21157   21158   21158       0   21160   21161   21161       0
   21163   21164   21164       0   21166   21167   21167       0   21169   21170
   21170       0   21172   21173   21173       0   21175   21176   21176       0
   21178   21179   21179       0   21181   21182   21182       0   21184   21185
   21185       0   21187   21188   21188       0   21190   21191   21191       0
   21193   21194   21194       0   21196   21197   21197       0   21199   21200
   21200       0   21202   21203   21203       0   21205   21206   21206       0
   21208   21209   21209       0   21211   21212   21212       0   21214   21215
   21215       0   21217   21218   21218       0   21220   21221   21221       0
   21223   21224   21224       0   21226   21227   21227       0   21229   21230
   21230       0   21232   21233   21233       0   21235   21236   21236       0
   21238   21239   21239       0   21241   21242   21242       0   21244   21245
   21245       0   21247   21248   21248       0   21250   21251   21251       0
   21253   21254   21254       0   21256   21257   21257       0   21259   21260
   21260       0   21262   21263   21263       0   21265   21266   21266       0
   21268   21269   21269       0   21271   21272   21272       0   21274   21275
   21275       0   21277   21278   21278       0   21280   21281   21281       0
   21283   21284   21284       0   21286   21287   21287       0   21289   21290
   21290       0   21292   21293   21293       0   21295   21296   21296       0
   21298   21299   21299       0   21301   21302   21302       0   21304   21305
   21305       0   21307   21308   21308       0   21310   21311   21311       0
   21313   21314   21314       0   21316   21317   21317       0   21319   21320
   21320       0   21322   21323   21323       0   21325   21326   21326       0
   21328   21329   21329       0   21331   21332   21332       0   21334   21335
   21335       0   21337   21338   21338       0   21340   21341   21341       0
   21343   21344   21344       0   21346   21347   21347       0   21349   21350
   21350       0   21352   21353   21353       0   21355   21356   21356       0
   21358   21359   21359       0   21361   21362   21362       0   21364   21365
   21365       0   21367   21368   21368       0   21370   21371   21371       0
   21373   21374   21374       0   21376   21377   21377       0   21379   21380
   21380       0   21382   21383   21383       0   21385   21386   21386       0
   21388   21389   21389       0   21391   21392   21392       0   21394   21395
   21395       0   21397   21398   21398       0   21400   21401   21401       0
   21403   21404   21404       0   21406   21407   21407       0   21409   21410
   21410       0   21412   21413   21413       0   21415   21416   21416       0
   21418   21419   21419       0   21421   21422   21422       0   21424   21425
   21425       0   21427   21428   21428       0   21430   21431   21431       0
   21433   21434   21434       0   21436   21437   21437       0   21439   21440
   21440       0   21442   21443   21443       0   21445   21446   21446       0
   21448   21449   21449       0   21451   21452   21452       0   21454   21455
   21455       0   21457   21458   21458       0   21460   21461   21461       0
   21463   21464   21464       0   21466   21467   21467       0   21469   21470
   21470       0   21472   21473   21473       0   21475   21476   21476       0
   21478   21479   21479       0   21481   21482   21482       0   21484   21485
   21485       0   21487   21488   21488       0   21490   21491   21491       0
   21493   21494   21494       0   21496   21497   21497       0   21499   21500
   21500       0   21502   21503   21503       0   21505   21506   21506       0
   21508   21509   21509       0   21511   21512   21512       0   21514   21515
   21515       0   21517   21518   21518       0   21520   21521   21521       0
   21523   21524   21524       0   21526   21527   21527       0   21529   21530
   21530       0   21532   21533   21533       0   21535   21536   21536       0
   21538   21539   21539       0   21541   21542   21542       0   21544   21545
   21545       0   21547   21548   21548       0   21550   21551   21551       0
   21553   21554   21554       0   21556   21557   21557       0   21559   21560
   21560       0   21562   21563   21563       0   21565   21566   21566       0
   21568   21569   21569       0   21571   21572   21572       0   21574   21575
   21575       0   21577   21578   21578       0   21580   21581   21581       0
   21583   21584   21584       0   21586   21587   21587       0   21589   21590
   21590       0   21592   21593   21593       0   21595   21596   21596       0
   21598   21599   21599       0   21601   21602   21602       0   21604   21605
   21605       0   21607   21608   21608       0   21610   21611   21611       0
   21613   21614   21614       0   21616   21617   21617       0   21619   21620
   21620       0   21622   21623   21623       0   21625   21626   21626       0
   21628   21629   21629       0   21631   21632   21632       0   21634   21635
   21635       0   21637   21638   21638       0   21640   21641   21641       0
   21643   21644   21644       0   21646   21647   21647       0   21649   21650
   21650       0   21652   21653   21653       0   21655   21656   21656       0
   21658   21659   21659       0   21661   21662   21662       0   21664   21665
   21665       0   21667   21668   21668       0   21670   21671   21671       0
   21673   21674   21674       0   21676   21677   21677       0   21679   21680
   21680       0   21682   21683   21683       0   21685   21686   21686       0
   21688   21689   21689       0   21691   21692   21692       0   21694   21695
   21695       0   21697   21698   21698       0   21700   21701   21701       0
   21703   21704   21704       0   21706   21707   21707       0   21709   21710
   21710       0   21712   21713   21713       0   21715   21716   21716       0
   21718   21719   21719       0   21721   21722   21722       0   21724   21725
   21725       0   21727   21728   21728       0   21730   21731   21731       0
   21733   21734   21734       0   21736   21737   21737       0   21739   21740
   21740       0   21742   21743   21743       0   21745   21746   21746       0
   21748   21749   21749       0   21751   21752   21752       0   21754   21755
   21755       0   21757   21758   21758       0   21760   21761   21761       0
   21763   21764   21764       0   21766   21767   21767       0   21769   21770
   21770       0   21772   21773   21773       0   21775   21776   21776       0
   21778   21779   21779       0   21781   21782   21782       0   21784   21785
   21785       0   21787   21788   21788       0   21790   21791   21791       0
   21793   21794   21794       0   21796   21797   21797       0   21799   21800
   21800       0   21802   21803   21803       0   21805   21806   21806       0
   21808   21809   21809       0   21811   21812   21812       0   21814   21815
   21815       0   21817   21818   21818       0   21820   21821   21821       0
   21823   21824   21824       0   21826   21827   21827       0   21829   21830
   21830       0   21832   21833   21833       0   21835   21836   21836       0
   21838   21839   21839       0   21841   21842   21842       0   21844   21845
   21845       0   21847   21848   21848       0   21850   21851   21851       0
   21853   21854   21854       0   21856   21857   21857       0   21859   21860
   21860       0   21862   21863   21863       0   21865   21866   21866       0
   21868   21869   21869       0   21871   21872   21872       0   21874   21875
   21875       0   21877   21878   21878       0   21880   21881   21881       0
   21883   21884   21884       0   21886   21887   21887       0   21889   21890
   21890       0   21892   21893   21893       0   21895   21896   21896       0
   21898   21899   21899       0   21901   21902   21902       0   21904   21905
   21905       0   21907   21908   21908       0   21910   21911   21911       0
   21913   21914   21914       0   21916   21917   21917       0   21919   21920
   21920       0   21922   21923   21923       0   21925   21926   21926       0
   21928   21929   21929       0   21931   21932   21932       0   21934   21935
   21935       0   21937   21938   21938       0   21940   21941   21941       0
   21943   21944   21944       0   21946   21947   21947       0   21949   21950
   21950       0   21952   21953   21953       0   21955   21956   21956       0
   21958   21959   21959       0   21961   21962   21962       0   21964   21965
   21965       0   21967   21968   21968       0   21970   21971   21971       0
   21973   21974   21974       0   21976   21977   21977       0   21979   21980
   21980       0   21982   21983   21983       0   21985   21986   21986       0
   21988   21989   21989       0   21991   21992   21992       0   21994   21995
   21995       0   21997   21998   21998       0   22000   22001   22001       0
   22003   22004   22004       0   22006   22007   22007       0   22009   22010
   22010       0   22012   22013   22013       0   22015   22016   22016       0
   22018   22019   22019       0   22021   22022   22022       0   22024   22025
   22025       0   22027   22028   22028       0   22030   22031   22031       0
   22033   22034   22034       0   22036   22037   22037       0   22039   22040
   22040       0   22042   22043   22043       0   22045   22046   22046       0
   22048   22049   22049       0   22051   22052   22052       0   22054   22055
   22055       0   22057   22058   22058       0   22060   22061   22061       0
   22063   22064   22064       0   22066   22067   22067       0   22069   22070
   22070       0   22072   22073   22073       0   22075   22076   22076       0
   22078   22079   22079       0   22081   22082   22082       0   22084   22085
   22085       0   22087   22088   22088       0   22090   22091   22091       0
   22093   22094   22094       0   22096   22097   22097       0   22099   22100
   22100       0   22102   22103   22103       0   22105   22106   22106       0
   22108   22109   22109       0   22111   22112   22112       0   22114   22115
   22115       0   22117   22118   22118       0   22120   22121   22121       0
   22123   22124   22124       0   22126   22127   22127       0   22129   22130
   22130       0   22132   22133   22133       0   22135   22136   22136       0
   22138   22139   22139       0   22141   22142   22142       0   22144   22145
   22145       0   22147   22148   22148       0   22150   22151   22151       0
   22153   22154   22154       0   22156   22157   22157       0   22159   22160
   22160       0   22162   22163   22163       0   22165   22166   22166       0
   22168   22169   22169       0   22171   22172   22172       0   22174   22175
   22175       0   22177   22178   22178       0   22180   22181   22181       0
   22183   22184   22184       0   22186   22187   22187       0   22189   22190
   22190       0   22192   22193   22193       0   22195   22196   22196       0
   22198   22199   22199       0   22201   22202   22202       0   22204   22205
   22205       0   22207   22208   22208       0   22210   22211   22211       0
   22213   22214   22214       0   22216   22217   22217       0   22219   22220
   22220       0   22222   22223   22223       0   22225   22226   22226       0
   22228   22229   22229       0   22231   22232   22232       0   22234   22235
   22235       0   22237   22238   22238       0   22240   22241   22241       0
   22243   22244   22244       0   22246   22247   22247       0   22249   22250
   22250       0   22252   22253   22253       0   22255   22256   22256       0
   22258   22259   22259       0   22261   22262   22262       0   22264   22265
   22265       0   22267   22268   22268       0   22270   22271   22271       0
   22273   22274   22274       0   22276   22277   22277       0   22279   22280
   22280       0   22282   22283   22283       0   22285   22286   22286       0
   22288   22289   22289       0   22291   22292   22292       0   22294   22295
   22295       0   22297   22298   22298       0   22300   22301   22301       0
   22303   22304   22304       0   22306   22307   22307       0   22309   22310
   22310       0   22312   22313   22313       0   22315   22316   22316       0
   22318   22319   22319       0   22321   22322   22322       0   22324   22325
   22325       0   22327   22328   22328       0   22330   22331   22331       0
   22333   22334   22334       0   22336   22337   22337       0   22339   22340
   22340       0   22342   22343   22343       0   22345   22346   22346       0
   22348   22349   22349       0   22351   22352   22352       0   22354   22355
   22355       0   22357   22358   22358       0   22360   22361   22361       0
   22363   22364   22364       0   22366   22367   22367       0   22369   22370
   22370       0   22372   22373   22373       0   22375   22376   22376       0
   22378   22379   22379       0   22381   22382   22382       0   22384   22385
   22385       0   22387   22388   22388       0   22390   22391   22391       0
   22393   22394   22394       0   22396   22397   22397       0   22399   22400
   22400       0   22402   22403   22403       0   22405   22406   22406       0
   22408   22409   22409       0   22411   22412   22412       0   22414   22415
   22415       0   22417   22418   22418       0   22420   22421   22421       0
   22423   22424   22424       0   22426   22427   22427       0   22429   22430
   22430       0   22432   22433   22433       0   22435   22436   22436       0
   22438   22439   22439       0   22441   22442   22442       0   22444   22445
   22445       0   22447   22448   22448       0   22450   22451   22451       0
   22453   22454   22454       0   22456   22457   22457       0   22459   22460
   22460       0   22462   22463   22463       0   22465   22466   22466       0
   22468   22469   22469       0   22471   22472   22472       0   22474   22475
   22475       0   22477   22478   22478       0   22480   22481   22481       0
   22483   22484   22484       0   22486   22487   22487       0   22489   22490
   22490       0   22492   22493   22493       0   22495   22496   22496       0
   22498   22499   22499       0   22501   22502   22502       0   22504   22505
   22505       0   22507   22508   22508       0   22510   22511   22511       0
   22513   22514   22514       0   22516   22517   22517       0   22519   22520
   22520       0   22522   22523   22523       0   22525   22526   22526       0
   22528   22529   22529       0   22531   22532   22532       0   22534   22535
   22535       0   22537   22538   22538       0   22540   22541   22541       0
   22543   22544   22544       0   22546   22547   22547       0   22549   22550
   22550       0   22552   22553   22553       0   22555   22556   22556       0
   22558   22559   22559       0   22561   22562   22562       0   22564   22565
   22565       0   22567   22568   22568       0   22570   22571   22571       0
   22573   22574   22574       0   22576   22577   22577       0   22579   22580
   22580       0   22582   22583   22583       0   22585   22586   22586       0
   22588   22589   22589       0   22591   22592   22592       0   22594   22595
   22595       0   22597   22598   22598       0   22600   22601   22601       0
   22603   22604   22604       0   22606   22607   22607       0   22609   22610
   22610       0   22612   22613   22613       0   22615   22616   22616       0
   22618   22619   22619       0   22621   22622   22622       0   22624   22625
   22625       0   22627   22628   22628       0   22630   22631   22631       0
   22633   22634   22634       0   22636   22637   22637       0   22639   22640
   22640       0   22642   22643   22643       0   22645   22646   22646       0
   22648   22649   22649       0   22651   22652   22652       0   22654   22655
   22655       0   22657   22658   22658       0   22660   22661   22661       0
   22663   22664   22664       0   22666   22667   22667       0   22669   22670
   22670       0   22672   22673   22673       0   22675   22676   22676       0
   22678   22679   22679       0   22681   22682   22682       0   22684   22685
   22685       0   22687   22688   22688       0   22690   22691   22691       0
   22693   22694   22694       0   22696   22697   22697       0   22699   22700
   22700       0   22702   22703   22703       0   22705   22706   22706       0
   22708   22709   22709       0   22711   22712   22712       0   22714   22715
   22715       0   22717   22718   22718       0   22720   22721   22721       0
   22723   22724   22724       0   22726   22727   22727       0   22729   22730
   22730       0   22732   22733   22733       0   22735   22736   22736       0
   22738   22739   22739       0   22741   22742   22742       0   22744   22745
   22745       0   22747   22748   22748       0   22750   22751   22751       0
   22753   22754   22754       0   22756   22757   22757       0   22759   22760
   22760       0   22762   22763   22763       0   22765   22766   22766       0
   22768   22769   22769       0   22771   22772   22772       0   22774   22775
   22775       0   22777   22778   22778       0   22780   22781   22781       0
   22783   22784   22784       0   22786   22787   22787       0   22789   22790
   22790       0   22792   22793   22793       0   22795   22796   22796       0
   22798   22799   22799       0   22801   22802   22802       0   22804   22805
   22805       0   22807   22808   22808       0   22810   22811   22811       0
   22813   22814   22814       0   22816   22817   22817       0   22819   22820
   22820       0   22822   22823   22823       0   22825   22826   22826       0
   22828   22829   22829       0   22831   22832   22832       0   22834   22835
   22835       0   22837   22838   22838       0   22840   22841   22841       0
   22843   22844   22844       0   22846   22847   22847       0   22849   22850
   22850       0   22852   22853   22853       0   22855   22856   22856       0
   22858   22859   22859       0   22861   22862   22862       0   22864   22865
   22865       0   22867   22868   22868       0   22870   22871   22871       0
   22873   22874   22874       0   22876   22877   22877       0   22879   22880
   22880       0   22882   22883   22883       0   22885   22886   22886       0
   22888   22889   22889       0   22891   22892   22892       0   22894   22895
   22895       0   22897   22898   22898       0   22900   22901   22901       0
   22903   22904   22904       0   22906   22907   22907       0   22909   22910
   22910       0   22912   22913   22913       0   22915   22916   22916       0
   22918   22919   22919       0   22921   22922   22922       0   22924   22925
   22925       0   22927   22928   22928       0   22930   22931   22931       0
   22933   22934   22934       0   22936   22937   22937       0   22939   22940
   22940       0   22942   22943   22943       0   22945   22946   22946       0
   22948   22949   22949       0   22951   22952   22952       0   22954   22955
   22955       0   22957   22958   22958       0   22960   22961   22961       0
   22963   22964   22964       0   22966   22967   22967       0   22969   22970
   22970       0   22972   22973   22973       0   22975   22976   22976       0
   22978   22979   22979       0   22981   22982   22982       0   22984   22985
   22985       0   22987   22988   22988       0   22990   22991   22991       0
   22993   22994   22994       0   22996   22997   22997       0   22999   23000
   23000       0   23002   23003   23003       0   23005   23006   23006       0
   23008   23009   23009       0   23011   23012   23012       0   23014   23015
   23015       0   23017   23018   23018       0   23020   23021   23021       0
   23023   23024   23024       0   23026   23027   23027       0   23029   23030
   23030       0   23032   23033   23033       0   23035   23036   23036       0
   23038   23039   23039       0   23041   23042   23042       0   23044   23045
   23045       0   23047   23048   23048       0   23050   23051   23051       0
   23053   23054   23054       0   23056   23057   23057       0   23059   23060
   23060       0   23062   23063   23063       0   23065   23066   23066       0
   23068   23069   23069       0   23071   23072   23072       0   23074   23075
   23075       0   23077   23078   23078       0   23080   23081   23081       0
   23083   23084   23084       0   23086   23087   23087       0   23089   23090
   23090       0   23092   23093   23093       0   23095   23096   23096       0
   23098   23099   23099       0   23101   23102   23102       0   23104   23105
   23105       0   23107   23108   23108       0   23110   23111   23111       0
   23113   23114   23114       0   23116   23117   23117       0   23119   23120
   23120       0   23122   23123   23123       0   23125   23126   23126       0
   23128   23129   23129       0   23131   23132   23132       0   23134   23135
   23135       0   23137   23138   23138       0   23140   23141   23141       0
   23143   23144   23144       0   23146   23147   23147       0   23149   23150
   23150       0   23152   23153   23153       0   23155   23156   23156       0
   23158   23159   23159       0   23161   23162   23162       0   23164   23165
   23165       0   23167   23168   23168       0   23170   23171   23171       0
   23173   23174   23174       0   23176   23177   23177       0   23179   23180
   23180       0   23182   23183   23183       0   23185   23186   23186       0
   23188   23189   23189       0   23191   23192   23192       0   23194   23195
   23195       0   23197   23198   23198       0   23200   23201   23201       0
   23203   23204   23204       0   23206   23207   23207       0   23209   23210
   23210       0   23212   23213   23213       0   23215   23216   23216       0
   23218   23219   23219       0   23221   23222   23222       0   23224   23225
   23225       0   23227   23228   23228       0   23230   23231   23231       0
   23233   23234   23234       0   23236   23237   23237       0   23239   23240
   23240       0   23242   23243   23243       0   23245   23246   23246       0
   23248   23249   23249       0   23251   23252   23252       0   23254   23255
   23255       0   23257   23258   23258       0   23260   23261   23261       0
   23263   23264   23264       0   23266   23267   23267       0   23269   23270
   23270       0   23272   23273   23273       0   23275   23276   23276       0
   23278   23279   23279       0   23281   23282   23282       0   23284   23285
   23285       0   23287   23288   23288       0   23290   23291   23291       0
   23293   23294   23294       0   23296   23297   23297       0   23299   23300
   23300       0   23302   23303   23303       0   23305   23306   23306       0
   23308   23309   23309       0   23311   23312   23312       0   23314   23315
   23315       0   23317   23318   23318       0   23320   23321   23321       0
   23323   23324   23324       0   23326   23327   23327       0   23329   23330
   23330       0   23332   23333   23333       0   23335   23336   23336       0
   23338   23339   23339       0   23341   23342   23342       0   23344   23345
   23345       0   23347   23348   23348       0   23350   23351   23351       0
   23353   23354   23354       0   23356   23357   23357       0   23359   23360
   23360       0   23362   23363   23363       0   23365   23366   23366       0
   23368   23369   23369       0   23371   23372   23372       0   23374   23375
   23375       0   23377   23378   23378       0   23380   23381   23381       0
   23383   23384   23384       0   23386   23387   23387       0   23389   23390
   23390       0   23392   23393   23393       0   23395   23396   23396       0
   23398   23399   23399       0   23401   23402   23402       0   23404   23405
   23405       0   23407   23408   23408       0   23410   23411   23411       0
   23413   23414   23414       0   23416   23417   23417       0   23419   23420
   23420       0   23422   23423   23423       0   23425   23426   23426       0
   23428   23429   23429       0   23431   23432   23432       0   23434   23435
   23435       0   23437   23438   23438       0   23440   23441   23441       0
   23443   23444   23444       0   23446   23447   23447       0   23449   23450
   23450       0   23452   23453   23453       0   23455   23456   23456       0
   23458   23459   23459       0   23461   23462   23462       0   23464   23465
   23465       0   23467   23468   23468       0   23470   23471   23471       0
   23473   23474   23474       0   23476   23477   23477       0   23479   23480
   23480       0   23482   23483   23483       0   23485   23486   23486       0
   23488   23489   23489       0   23491   23492   23492       0   23494   23495
   23495       0   23497   23498   23498       0   23500   23501   23501       0
   23503   23504   23504       0   23506   23507   23507       0   23509   23510
   23510       0   23512   23513   23513       0   23515   23516   23516       0
   23518   23519   23519       0   23521   23522   23522       0   23524   23525
   23525       0   23527   23528   23528       0   23530   23531   23531       0
   23533   23534   23534       0   23536   23537   23537       0   23539   23540
   23540       0   23542   23543   23543       0   23545   23546   23546       0
   23548   23549   23549       0   23551   23552   23552       0   23554   23555
   23555       0   23557   23558   23558       0   23560   23561   23561       0
   23563   23564   23564       0   23566   23567   23567       0   23569   23570
   23570       0   23572   23573   23573       0   23575   23576   23576       0
   23578   23579   23579       0   23581   23582   23582       0   23584   23585
   23585       0   23587   23588   23588       0   23590   23591   23591       0
   23593   23594   23594       0   23596   23597   23597       0   23599   23600
   23600       0   23602   23603   23603       0   23605   23606   23606       0
   23608   23609   23609       0   23611   23612   23612       0   23614   23615
   23615       0   23617   23618   23618       0   23620   23621   23621       0
   23623   23624   23624       0   23626   23627   23627       0   23629   23630
   23630       0   23632   23633   23633       0   23635   23636   23636       0
   23638   23639   23639       0   23641   23642   23642       0   23644   23645
   23645       0   23647   23648   23648       0   23650   23651   23651       0
   23653   23654   23654       0   23656   23657   23657       0   23659   23660
   23660       0   23662   23663   23663       0   23665   23666   23666       0
   23668   23669   23669       0   23671   23672   23672       0   23674   23675
   23675       0   23677   23678   23678       0   23680   23681   23681       0
   23683   23684   23684       0   23686   23687   23687       0   23689   23690
   23690       0   23692   23693   23693       0   23695   23696   23696       0
   23698   23699   23699       0   23701   23702   23702       0   23704   23705
   23705       0   23707   23708   23708       0   23710   23711   23711       0
   23713   23714   23714       0   23716   23717   23717       0   23719   23720
   23720       0   23722   23723   23723       0   23725   23726   23726       0
   23728   23729   23729       0   23731   23732   23732       0   23734   23735
   23735       0   23737   23738   23738       0   23740   23741   23741       0
   23743   23744   23744       0   23746   23747   23747       0   23749   23750
   23750       0   23752   23753   23753       0   23755   23756   23756       0
   23758   23759   23759       0   23761   23762   23762       0   23764   23765
   23765       0   23767   23768   23768       0   23770   23771   23771       0
   23773   23774   23774       0   23776   23777   23777       0   23779   23780
   23780       0   23782   23783   23783       0   23785   23786   23786       0
   23788   23789   23789       0   23791   23792   23792       0   23794   23795
   23795       0   23797   23798   23798       0   23800   23801   23801       0
   23803   23804   23804       0   23806   23807   23807       0   23809   23810
   23810       0   23812   23813   23813       0   23815   23816   23816       0
   23818   23819   23819       0   23821   23822   23822       0   23824   23825
   23825       0   23827   23828   23828       0   23830   23831   23831       0
   23833   23834   23834       0   23836   23837   23837       0   23839   23840
   23840       0   23842   23843   23843       0   23845   23846   23846       0
   23848   23849   23849       0   23851   23852   23852       0   23854   23855
   23855       0   23857   23858   23858       0   23860   23861   23861       0
   23863   23864   23864       0   23866   23867   23867       0   23869   23870
   23870       0   23872   23873   23873       0   23875   23876   23876       0
   23878   23879   23879       0   23881   23882   23882       0   23884   23885
   23885       0   23887   23888   23888       0   23890   23891   23891       0
   23893   23894   23894       0   23896   23897   23897       0   23899   23900
   23900       0   23902   23903   23903       0   23905   23906   23906       0
   23908   23909   23909       0   23911   23912   23912       0   23914   23915
   23915       0   23917   23918   23918       0   23920   23921   23921       0
   23923   23924   23924       0   23926   23927   23927       0   23929   23930
   23930       0   23932   23933   23933       0   23935   23936   23936       0
   23938   23939   23939       0   23941   23942   23942       0   23944   23945
   23945       0   23947   23948   23948       0   23950   23951   23951       0
   23953   23954   23954       0   23956   23957   23957       0   23959   23960
   23960       0   23962   23963   23963       0   23965   23966   23966       0
   23968   23969   23969       0   23971   23972   23972       0   23974   23975
   23975       0   23977   23978   23978       0   23980   23981   23981       0
   23983   23984   23984       0   23986   23987   23987       0   23989   23990
   23990       0   23992   23993   23993       0   23995   23996   23996       0
   23998   23999   23999       0   24001   24002   24002       0   24004   24005
   24005       0   24007   24008   24008       0   24010   24011   24011       0
   24013   24014   24014       0   24016   24017   24017       0   24019   24020
   24020       0   24022   24023   24023       0   24025   24026   24026       0
   24028   24029   24029       0   24031   24032   24032       0   24034   24035
   24035       0   24037   24038   24038       0   24040   24041   24041       0
   24043   24044   24044       0   24046   24047   24047       0   24049   24050
   24050       0   24052   24053   24053       0   24055   24056   24056       0
   24058   24059   24059       0   24061   24062   24062       0   24064   24065
   24065       0   24067   24068   24068       0   24070   24071   24071       0
   24073   24074   24074       0   24076   24077   24077       0   24079   24080
   24080       0   24082   24083   24083       0   24085   24086   24086       0
   24088   24089   24089       0   24091   24092   24092       0   24094   24095
   24095       0   24097   24098   24098       0   24100   24101   24101       0
   24103   24104   24104       0   24106   24107   24107       0   24109   24110
   24110       0   24112   24113   24113       0   24115   24116   24116       0
   24118   24119   24119       0   24121   24122   24122       0   24124   24125
   24125       0   24127   24128   24128       0   24130   24131   24131       0
   24133   24134   24134       0   24136   24137   24137       0   24139   24140
   24140       0   24142   24143   24143       0   24145   24146   24146       0
   24148   24149   24149       0   24151   24152   24152       0   24154   24155
   24155       0   24157   24158   24158       0   24160   24161   24161       0
   24163   24164   24164       0   24166   24167   24167       0   24169   24170
   24170       0   24172   24173   24173       0   24175   24176   24176       0
   24178   24179   24179       0   24181   24182   24182       0   24184   24185
   24185       0   24187   24188   24188       0   24190   24191   24191       0
   24193   24194   24194       0   24196   24197   24197       0   24199   24200
   24200       0   24202   24203   24203       0   24205   24206   24206       0
   24208   24209   24209       0   24211   24212   24212       0   24214   24215
   24215       0   24217   24218   24218       0   24220   24221   24221       0
   24223   24224   24224       0   24226   24227   24227       0   24229   24230
   24230       0   24232   24233   24233       0   24235   24236   24236       0
   24238   24239   24239       0   24241   24242   24242       0   24244   24245
   24245       0   24247   24248   24248       0   24250   24251   24251       0
   24253   24254   24254       0   24256   24257   24257       0   24259   24260
   24260       0   24262   24263   24263       0   24265   24266   24266       0
   24268   24269   24269       0   24271   24272   24272       0   24274   24275
   24275       0   24277   24278   24278       0   24280   24281   24281       0
   24283   24284   24284       0   24286   24287   24287       0   24289   24290
   24290       0   24292   24293   24293       0   24295   24296   24296       0
   24298   24299   24299       0   24301   24302   24302       0   24304   24305
   24305       0   24307   24308   24308       0   24310   24311   24311       0
   24313   24314   24314       0   24316   24317   24317       0   24319   24320
   24320       0   24322   24323   24323       0   24325   24326   24326       0
   24328   24329   24329       0   24331   24332   24332       0   24334   24335
   24335       0   24337   24338   24338       0   24340   24341   24341       0
   24343   24344   24344       0   24346   24347   24347       0   24349   24350
   24350       0   24352   24353   24353       0   24355   24356   24356       0
   24358   24359   24359       0   24361   24362   24362       0   24364   24365
   24365       0   24367   24368   24368       0   24370   24371   24371       0
   24373   24374   24374       0   24376   24377   24377       0   24379   24380
   24380       0   24382   24383   24383       0   24385   24386   24386       0
   24388   24389   24389       0   24391   24392   24392       0   24394   24395
   24395       0   24397   24398   24398       0   24400   24401   24401       0
   24403   24404   24404       0   24406   24407   24407       0   24409   24410
   24410       0   24412   24413   24413       0   24415   24416   24416       0
   24418   24419   24419       0   24421   24422   24422       0   24424   24425
   24425       0   24427   24428   24428       0   24430   24431   24431       0
   24433   24434   24434       0   24436   24437   24437       0   24439   24440
   24440       0   24442   24443   24443       0   24445   24446   24446       0
   24448   24449   24449       0   24451   24452   24452       0   24454   24455
   24455       0   24457   24458   24458       0   24460   24461   24461       0
   24463   24464   24464       0   24466   24467   24467       0   24469   24470
   24470       0   24472   24473   24473       0   24475   24476   24476       0
   24478   24479   24479       0   24481   24482   24482       0   24484   24485
   24485       0   24487   24488   24488       0   24490   24491   24491       0
   24493   24494   24494       0   24496   24497   24497       0   24499   24500
   24500       0   24502   24503   24503       0   24505   24506   24506       0
   24508   24509   24509       0   24511   24512   24512       0   24514   24515
   24515       0   24517   24518   24518       0   24520   24521   24521       0
   24523   24524   24524       0   24526   24527   24527       0   24529   24530
   24530       0   24532   24533   24533       0   24535   24536   24536       0
   24538   24539   24539       0   24541   24542   24542       0   24544   24545
   24545       0   24547   24548   24548       0   24550   24551   24551       0
   24553   24554   24554       0   24556   24557   24557       0   24559   24560
   24560       0   24562   24563   24563       0   24565   24566   24566       0
   24568   24569   24569       0   24571   24572   24572       0   24574   24575
   24575       0   24577   24578   24578       0   24580   24581   24581       0
   24583   24584   24584       0   24586   24587   24587       0   24589   24590
   24590       0   24592   24593   24593       0   24595   24596   24596       0
   24598   24599   24599       0   24601   24602   24602       0   24604   24605
   24605       0   24607   24608   24608       0   24610   24611   24611       0
   24613   24614   24614       0   24616   24617   24617       0   24619   24620
   24620       0   24622   24623   24623       0   24625   24626   24626       0
   24628   24629   24629       0   24631   24632   24632       0   24634   24635
   24635       0   24637   24638   24638       0   24640   24641   24641       0
   24643   24644   24644       0   24646   24647   24647       0   24649   24650
   24650       0   24652   24653   24653       0   24655   24656   24656       0
   24658   24659   24659       0   24661   24662   24662       0   24664   24665
   24665       0   24667   24668   24668       0   24670   24671   24671       0
   24673   24674   24674       0   24676   24677   24677       0   24679   24680
   24680       0   24682   24683   24683       0   24685   24686   24686       0
   24688   24689   24689       0   24691   24692   24692       0   24694   24695
   24695       0   24697   24698   24698       0   24700   24701   24701       0
   24703   24704   24704       0   24706   24707   24707       0   24709   24710
   24710       0   24712   24713   24713       0   24715   24716   24716       0
   24718   24719   24719       0   24721   24722   24722       0   24724   24725
   24725       0   24727   24728   24728       0   24730   24731   24731       0
   24733   24734   24734       0   24736   24737   24737       0   24739   24740
   24740       0   24742   24743   24743       0   24745   24746   24746       0
   24748   24749   24749       0   24751   24752   24752       0   24754   24755
   24755       0   24757   24758   24758       0   24760   24761   24761       0
   24763   24764   24764       0   24766   24767   24767       0   24769   24770
   24770       0   24772   24773   24773       0   24775   24776   24776       0
   24778   24779   24779       0   24781   24782   24782       0   24784   24785
   24785       0   24787   24788   24788       0   24790   24791   24791       0
   24793   24794   24794       0   24796   24797   24797       0   24799   24800
   24800       0   24802   24803   24803       0   24805   24806   24806       0
   24808   24809   24809       0   24811   24812   24812       0   24814   24815
   24815       0   24817   24818   24818       0   24820   24821   24821       0
   24823   24824   24824       0   24826   24827   24827       0   24829   24830
   24830       0   24832   24833   24833       0   24835   24836   24836       0
   24838   24839   24839       0   24841   24842   24842       0   24844   24845
   24845       0   24847   24848   24848       0   24850   24851   24851       0
   24853   24854   24854       0   24856   24857   24857       0   24859   24860
   24860       0   24862   24863   24863       0   24865   24866   24866       0
   24868   24869   24869       0   24871   24872   24872       0   24874   24875
   24875       0   24877   24878   24878       0   24880   24881   24881       0
   24883   24884   24884       0   24886   24887   24887       0   24889   24890
   24890       0   24892   24893   24893       0   24895   24896   24896       0
   24898   24899   24899       0   24901   24902   24902       0   24904   24905
   24905       0   24907   24908   24908       0   24910   24911   24911       0
   24913   24914   24914       0   24916   24917   24917       0   24919   24920
   24920       0   24922   24923   24923       0   24925   24926   24926       0
   24928   24929   24929       0   24931   24932   24932       0   24934   24935
   24935       0   24937   24938   24938       0   24940   24941   24941       0
   24943   24944   24944       0   24946   24947   24947       0   24949   24950
   24950       0   24952   24953   24953       0   24955   24956   24956       0
   24958   24959   24959       0   24961   24962   24962       0   24964   24965
   24965       0   24967   24968   24968       0   24970   24971   24971       0
   24973   24974   24974       0   24976   24977   24977       0   24979   24980
   24980       0   24982   24983   24983       0   24985   24986   24986       0
   24988   24989   24989       0   24991   24992   24992       0   24994   24995
   24995       0   24997   24998   24998       0   25000   25001   25001       0
   25003   25004   25004       0   25006   25007   25007       0   25009   25010
   25010       0   25012   25013   25013       0   25015   25016   25016       0
   25018   25019   25019       0   25021   25022   25022       0   25024   25025
   25025       0   25027   25028   25028       0   25030   25031   25031       0
   25033   25034   25034       0   25036   25037   25037       0   25039   25040
   25040       0   25042   25043   25043       0   25045   25046   25046       0
   25048   25049   25049       0   25051   25052   25052       0   25054   25055
   25055       0   25057   25058   25058       0   25060   25061   25061       0
   25063   25064   25064       0   25066   25067   25067       0   25069   25070
   25070       0   25072   25073   25073       0   25075   25076   25076       0
   25078   25079   25079       0   25081   25082   25082       0   25084   25085
   25085       0   25087   25088   25088       0   25090   25091   25091       0
   25093   25094   25094       0   25096   25097   25097       0   25099   25100
   25100       0   25102   25103   25103       0   25105   25106   25106       0
   25108   25109   25109       0   25111   25112   25112       0   25114   25115
   25115       0   25117   25118   25118       0   25120   25121   25121       0
   25123   25124   25124       0   25126   25127   25127       0   25129   25130
   25130       0   25132   25133   25133       0   25135   25136   25136       0
   25138   25139   25139       0   25141   25142   25142       0   25144   25145
   25145       0   25147   25148   25148       0   25150   25151   25151       0
   25153   25154   25154       0   25156   25157   25157       0   25159   25160
   25160       0   25162   25163   25163       0   25165   25166   25166       0
   25168   25169   25169       0   25171   25172   25172       0   25174   25175
   25175       0   25177   25178   25178       0   25180   25181   25181       0
   25183   25184   25184       0   25186   25187   25187       0   25189   25190
   25190       0   25192   25193   25193       0   25195   25196   25196       0
   25198   25199   25199       0   25201   25202   25202       0   25204   25205
   25205       0   25207   25208   25208       0   25210   25211   25211       0
   25213   25214   25214       0   25216   25217   25217       0   25219   25220
   25220       0   25222   25223   25223       0   25225   25226   25226       0
   25228   25229   25229       0   25231   25232   25232       0   25234   25235
   25235       0   25237   25238   25238       0   25240   25241   25241       0
   25243   25244   25244       0   25246   25247   25247       0   25249   25250
   25250       0   25252   25253   25253       0   25255   25256   25256       0
   25258   25259   25259       0   25261   25262   25262       0   25264   25265
   25265       0   25267   25268   25268       0   25270   25271   25271       0
   25273   25274   25274       0   25276   25277   25277       0   25279   25280
   25280       0   25282   25283   25283       0   25285   25286   25286       0
   25288   25289   25289       0   25291   25292   25292       0   25294   25295
   25295       0   25297   25298   25298       0   25300   25301   25301       0
   25303   25304   25304       0   25306   25307   25307       0   25309   25310
   25310       0   25312   25313   25313       0   25315   25316   25316       0
   25318   25319   25319       0   25321   25322   25322       0   25324   25325
   25325       0   25327   25328   25328       0   25330   25331   25331       0
   25333   25334   25334       0   25336   25337   25337       0   25339   25340
   25340       0   25342   25343   25343       0   25345   25346   25346       0
   25348   25349   25349       0   25351   25352   25352       0   25354   25355
   25355       0   25357   25358   25358       0   25360   25361   25361       0
   25363   25364   25364       0   25366   25367   25367       0   25369   25370
   25370       0   25372   25373   25373       0   25375   25376   25376       0
   25378   25379   25379       0   25381   25382   25382       0   25384   25385
   25385       0   25387   25388   25388       0   25390   25391   25391       0
   25393   25394   25394       0   25396   25397   25397       0   25399   25400
   25400       0   25402   25403   25403       0   25405   25406   25406       0
   25408   25409   25409       0   25411   25412   25412       0   25414   25415
   25415       0   25417   25418   25418       0   25420   25421   25421       0
   25423   25424   25424       0   25426   25427   25427       0   25429   25430
   25430       0   25432   25433   25433       0   25435   25436   25436       0
   25438   25439   25439       0   25441   25442   25442       0   25444   25445
   25445       0   25447   25448   25448       0   25450   25451   25451       0
   25453   25454   25454       0   25456   25457   25457       0   25459   25460
   25460       0   25462   25463   25463       0   25465   25466   25466       0
   25468   25469   25469       0   25471   25472   25472       0   25474   25475
   25475       0   25477   25478   25478       0   25480   25481   25481       0
   25483   25484   25484       0   25486   25487   25487       0   25489   25490
   25490       0   25492   25493   25493       0   25495   25496   25496       0
   25498   25499   25499       0   25501   25502   25502       0   25504   25505
   25505       0   25507   25508   25508       0   25510   25511   25511       0
   25513   25514   25514       0   25516   25517   25517       0   25519   25520
   25520       0   25522   25523   25523       0   25525   25526   25526       0
   25528   25529   25529       0   25531   25532   25532       0   25534   25535
   25535       0   25537   25538   25538       0   25540   25541   25541       0
   25543   25544   25544       0   25546   25547   25547       0   25549   25550
   25550       0   25552   25553   25553       0   25555   25556   25556       0
   25558   25559   25559       0   25561   25562   25562       0   25564   25565
   25565       0   25567   25568   25568       0   25570   25571   25571       0
   25573   25574   25574       0   25576   25577   25577       0   25579   25580
   25580       0   25582   25583   25583       0   25585   25586   25586       0
   25588   25589   25589       0   25591   25592   25592       0   25594   25595
   25595       0   25597   25598   25598       0   25600   25601   25601       0
   25603   25604   25604       0   25606   25607   25607       0   25609   25610
   25610       0   25612   25613   25613       0   25615   25616   25616       0
   25618   25619   25619       0   25621   25622   25622       0   25624   25625
   25625       0   25627   25628   25628       0   25630   25631   25631       0
   25633   25634   25634       0   25636   25637   25637       0   25639   25640
   25640       0   25642   25643   25643       0   25645   25646   25646       0
   25648   25649   25649       0   25651   25652   25652       0   25654   25655
   25655       0   25657   25658   25658       0   25660   25661   25661       0
   25663   25664   25664       0   25666   25667   25667       0   25669   25670
   25670       0   25672   25673   25673       0   25675   25676   25676       0
   25678   25679   25679       0   25681   25682   25682       0   25684   25685
   25685       0   25687   25688   25688       0   25690   25691   25691       0
   25693   25694   25694       0   25696   25697   25697       0   25699   25700
   25700       0   25702   25703   25703       0   25705   25706   25706       0
   25708   25709   25709       0   25711   25712   25712       0   25714   25715
   25715       0   25717   25718   25718       0   25720   25721   25721       0
   25723   25724   25724       0   25726   25727   25727       0   25729   25730
   25730       0   25732   25733   25733       0   25735   25736   25736       0
   25738   25739   25739       0   25741   25742   25742       0   25744   25745
   25745       0   25747   25748   25748       0   25750   25751   25751       0
   25753   25754   25754       0   25756   25757   25757       0   25759   25760
   25760       0   25762   25763   25763       0   25765   25766   25766       0
   25768   25769   25769       0   25771   25772   25772       0   25774   25775
   25775       0   25777   25778   25778       0   25780   25781   25781       0
   25783   25784   25784       0   25786   25787   25787       0   25789   25790
   25790       0   25792   25793   25793       0   25795   25796   25796       0
   25798   25799   25799       0   25801   25802   25802       0   25804   25805
   25805       0   25807   25808   25808       0   25810   25811   25811       0
   25813   25814   25814       0   25816   25817   25817       0   25819   25820
   25820       0   25822   25823   25823       0   25825   25826   25826       0
   25828   25829   25829       0   25831   25832   25832       0   25834   25835
   25835       0   25837   25838   25838       0   25840   25841   25841       0
   25843   25844   25844       0   25846   25847   25847       0   25849   25850
   25850       0   25852   25853   25853       0   25855   25856   25856       0
   25858   25859   25859       0   25861   25862   25862       0   25864   25865
   25865       0   25867   25868   25868       0   25870   25871   25871       0
   25873   25874   25874       0   25876   25877   25877       0   25879   25880
   25880       0   25882   25883   25883       0   25885   25886   25886       0
   25888   25889   25889       0   25891   25892   25892       0   25894   25895
   25895       0   25897   25898   25898       0   25900   25901   25901       0
   25903   25904   25904       0   25906   25907   25907       0   25909   25910
   25910       0   25912   25913   25913       0   25915   25916   25916       0
   25918   25919   25919       0   25921   25922   25922       0   25924   25925
   25925       0   25927   25928   25928       0   25930   25931   25931       0
   25933   25934   25934       0   25936   25937   25937       0   25939   25940
   25940       0   25942   25943   25943       0   25945   25946   25946       0
   25948   25949   25949       0   25951   25952   25952       0   25954   25955
   25955       0   25957   25958   25958       0   25960   25961   25961       0
   25963   25964   25964       0   25966   25967   25967       0   25969   25970
   25970       0   25972   25973   25973       0   25975   25976   25976       0
   25978   25979   25979       0   25981   25982   25982       0   25984   25985
   25985       0   25987   25988   25988       0   25990   25991   25991       0
   25993   25994   25994       0   25996   25997   25997       0   25999   26000
   26000       0   26002   26003   26003       0   26005   26006   26006       0
   26008   26009   26009       0   26011   26012   26012       0   26014   26015
   26015       0   26017   26018   26018       0   26020   26021   26021       0
   26023   26024   26024       0   26026   26027   26027       0   26029   26030
   26030       0   26032   26033   26033       0   26035   26036   26036       0
   26038   26039   26039       0   26041   26042   26042       0   26044   26045
   26045       0   26047   26048   26048       0   26050   26051   26051       0
   26053   26054   26054       0   26056   26057   26057       0   26059   26060
   26060       0   26062   26063   26063       0   26065   26066   26066       0
   26068   26069   26069       0   26071   26072   26072       0   26074   26075
   26075       0   26077   26078   26078       0   26080   26081   26081       0
   26083   26084   26084       0   26086   26087   26087       0   26089   26090
   26090       0   26092   26093   26093       0   26095   26096   26096       0
   26098   26099   26099       0   26101   26102   26102       0   26104   26105
   26105       0   26107   26108   26108       0   26110   26111   26111       0
   26113   26114   26114       0   26116   26117   26117       0   26119   26120
   26120       0   26122   26123   26123       0   26125   26126   26126       0
   26128   26129   26129       0   26131   26132   26132       0   26134   26135
   26135       0   26137   26138   26138       0   26140   26141   26141       0
   26143   26144   26144       0   26146   26147   26147       0   26149   26150
   26150       0   26152   26153   26153       0   26155   26156   26156       0
   26158   26159   26159       0   26161   26162   26162       0   26164   26165
   26165       0   26167   26168   26168       0   26170   26171   26171       0
   26173   26174   26174       0   26176   26177   26177       0   26179   26180
   26180       0   26182   26183   26183       0   26185   26186   26186       0
   26188   26189   26189       0   26191   26192   26192       0   26194   26195
   26195       0   26197   26198   26198       0   26200   26201   26201       0
   26203   26204   26204       0   26206   26207   26207       0   26209   26210
   26210       0   26212   26213   26213       0   26215   26216   26216       0
   26218   26219   26219       0   26221   26222   26222       0   26224   26225
   26225       0   26227   26228   26228       0   26230   26231   26231       0
   26233   26234   26234       0   26236   26237   26237       0   26239   26240
   26240       0   26242   26243   26243       0   26245   26246   26246       0
   26248   26249   26249       0   26251   26252   26252       0   26254   26255
   26255       0   26257   26258   26258       0   26260   26261   26261       0
   26263   26264   26264       0   26266   26267   26267       0   26269   26270
   26270       0   26272   26273   26273       0   26275   26276   26276       0
   26278   26279   26279       0   26281   26282   26282       0   26284   26285
   26285       0   26287   26288   26288       0   26290   26291   26291       0
   26293   26294   26294       0   26296   26297   26297       0   26299   26300
   26300       0   26302   26303   26303       0   26305   26306   26306       0
   26308   26309   26309       0   26311   26312   26312       0   26314   26315
   26315       0   26317   26318   26318       0   26320   26321   26321       0
   26323   26324   26324       0   26326   26327   26327       0   26329   26330
   26330       0   26332   26333   26333       0   26335   26336   26336       0
   26338   26339   26339       0   26341   26342   26342       0   26344   26345
   26345       0   26347   26348   26348       0   26350   26351   26351       0
   26353   26354   26354       0   26356   26357   26357       0   26359   26360
   26360       0   26362   26363   26363       0   26365   26366   26366       0
   26368   26369   26369       0   26371   26372   26372       0   26374   26375
   26375       0   26377   26378   26378       0   26380   26381   26381       0
   26383   26384   26384       0   26386   26387   26387       0   26389   26390
   26390       0   26392   26393   26393       0   26395   26396   26396       0
   26398   26399   26399       0   26401   26402   26402       0   26404   26405
   26405       0   26407   26408   26408       0   26410   26411   26411       0
   26413   26414   26414       0   26416   26417   26417       0   26419   26420
   26420       0   26422   26423   26423       0   26425   26426   26426       0
   26428   26429   26429       0   26431   26432   26432       0   26434   26435
   26435       0   26437   26438   26438       0   26440   26441   26441       0
   26443   26444   26444       0   26446   26447   26447       0   26449   26450
   26450       0   26452   26453   26453       0   26455   26456   26456       0
   26458   26459   26459       0   26461   26462   26462       0   26464   26465
   26465       0   26467   26468   26468       0   26470   26471   26471       0
   26473   26474   26474       0   26476   26477   26477       0   26479   26480
   26480       0   26482   26483   26483       0   26485   26486   26486       0
   26488   26489   26489       0   26491   26492   26492       0   26494   26495
   26495       0   26497   26498   26498       0   26500   26501   26501       0
   26503   26504   26504       0   26506   26507   26507       0   26509   26510
   26510       0   26512   26513   26513       0   26515   26516   26516       0
   26518   26519   26519       0   26521   26522   26522       0   26524   26525
   26525       0   26527   26528   26528       0   26530   26531   26531       0
   26533   26534   26534       0   26536   26537   26537       0   26539   26540
   26540       0   26542   26543   26543       0   26545   26546   26546       0
   26548   26549   26549       0   26551   26552   26552       0   26554   26555
   26555       0   26557   26558   26558       0   26560   26561   26561       0
   26563   26564   26564       0   26566   26567   26567       0   26569   26570
   26570       0   26572   26573   26573       0   26575   26576   26576       0
   26578   26579   26579       0   26581   26582   26582       0   26584   26585
   26585       0   26587   26588   26588       0   26590   26591   26591       0
   26593   26594   26594       0   26596   26597   26597       0   26599   26600
   26600       0   26602   26603   26603       0   26605   26606   26606       0
   26608   26609   26609       0   26611   26612   26612       0   26614   26615
   26615       0   26617   26618   26618       0   26620   26621   26621       0
   26623   26624   26624       0   26626   26627   26627       0   26629   26630
   26630       0   26632   26633   26633       0   26635   26636   26636       0
   26638   26639   26639       0   26641   26642   26642       0   26644   26645
   26645       0   26647   26648   26648       0   26650   26651   26651       0
   26653   26654   26654       0   26656   26657   26657       0   26659   26660
   26660       0   26662   26663   26663       0   26665   26666   26666       0
   26668   26669   26669       0   26671   26672   26672       0   26674   26675
   26675       0   26677   26678   26678       0   26680   26681   26681       0
   26683   26684   26684       0   26686   26687   26687       0   26689   26690
   26690       0   26692   26693   26693       0   26695   26696   26696       0
   26698   26699   26699       0   26701   26702   26702       0   26704   26705
   26705       0   26707   26708   26708       0   26710   26711   26711       0
   26713   26714   26714       0   26716   26717   26717       0   26719   26720
   26720       0   26722   26723   26723       0   26725   26726   26726       0
   26728   26729   26729       0   26731   26732   26732       0   26734   26735
   26735       0   26737   26738   26738       0   26740   26741   26741       0
   26743   26744   26744       0   26746   26747   26747       0   26749   26750
   26750       0   26752   26753   26753       0   26755   26756   26756       0
   26758   26759   26759       0   26761   26762   26762       0   26764   26765
   26765       0   26767   26768   26768       0   26770   26771   26771       0
   26773   26774   26774       0   26776   26777   26777       0   26779   26780
   26780       0   26782   26783   26783       0   26785   26786   26786       0
   26788   26789   26789       0   26791   26792   26792       0   26794   26795
   26795       0   26797   26798   26798       0   26800   26801   26801       0
   26803   26804   26804       0   26806   26807   26807       0   26809   26810
   26810       0   26812   26813   26813       0   26815   26816   26816       0
   26818   26819   26819       0   26821   26822   26822       0   26824   26825
   26825       0   26827   26828   26828       0   26830   26831   26831       0
   26833   26834   26834       0   26836   26837   26837       0   26839   26840
   26840       0   26842   26843   26843       0   26845   26846   26846       0
   26848   26849   26849       0   26851   26852   26852       0   26854   26855
   26855       0   26857   26858   26858       0   26860   26861   26861       0
   26863   26864   26864       0   26866   26867   26867       0   26869   26870
   26870       0   26872   26873   26873       0   26875   26876   26876       0
   26878   26879   26879       0   26881   26882   26882       0   26884   26885
   26885       0   26887   26888   26888       0   26890   26891   26891       0
   26893   26894   26894       0   26896   26897   26897       0   26899   26900
   26900       0   26902   26903   26903       0   26905   26906   26906       0
   26908   26909   26909       0   26911   26912   26912       0   26914   26915
   26915       0   26917   26918   26918       0   26920   26921   26921       0
   26923   26924   26924       0   26926   26927   26927       0   26929   26930
   26930       0   26932   26933   26933       0   26935   26936   26936       0
   26938   26939   26939       0   26941   26942   26942       0   26944   26945
   26945       0   26947   26948   26948       0   26950   26951   26951       0
   26953   26954   26954       0   26956   26957   26957       0   26959   26960
   26960       0   26962   26963   26963       0   26965   26966   26966       0
   26968   26969   26969       0   26971   26972   26972       0   26974   26975
   26975       0   26977   26978   26978       0   26980   26981   26981       0
   26983   26984   26984       0   26986   26987   26987       0   26989   26990
   26990       0   26992   26993   26993       0   26995   26996   26996       0
   26998   26999   26999       0   27001   27002   27002       0   27004   27005
   27005       0   27007   27008   27008       0   27010   27011   27011       0
   27013   27014   27014       0   27016   27017   27017       0   27019   27020
   27020       0   27022   27023   27023       0   27025   27026   27026       0
   27028   27029   27029       0   27031   27032   27032       0   27034   27035
   27035       0   27037   27038   27038       0   27040   27041   27041       0
   27043   27044   27044       0   27046   27047   27047       0   27049   27050
   27050       0   27052   27053   27053       0   27055   27056   27056       0
   27058   27059   27059       0   27061   27062   27062       0   27064   27065
   27065       0   27067   27068   27068       0   27070   27071   27071       0
   27073   27074   27074       0   27076   27077   27077       0   27079   27080
   27080       0   27082   27083   27083       0   27085   27086   27086       0
   27088   27089   27089       0   27091   27092   27092       0   27094   27095
   27095       0   27097   27098   27098       0   27100   27101   27101       0
   27103   27104   27104       0   27106   27107   27107       0   27109   27110
   27110       0   27112   27113   27113       0   27115   27116   27116       0
   27118   27119   27119       0   27121   27122   27122       0   27124   27125
   27125       0   27127   27128   27128       0   27130   27131   27131       0
   27133   27134   27134       0   27136   27137   27137       0   27139   27140
   27140       0   27142   27143   27143       0   27145   27146   27146       0
   27148   27149   27149       0   27151   27152   27152       0   27154   27155
   27155       0   27157   27158   27158       0   27160   27161   27161       0
   27163   27164   27164       0   27166   27167   27167       0   27169   27170
   27170       0   27172   27173   27173       0   27175   27176   27176       0
   27178   27179   27179       0   27181   27182   27182       0   27184   27185
   27185       0   27187   27188   27188       0   27190   27191   27191       0
   27193   27194   27194       0   27196   27197   27197       0   27199   27200
   27200       0   27202   27203   27203       0   27205   27206   27206       0
   27208   27209   27209       0   27211   27212   27212       0   27214   27215
   27215       0   27217   27218   27218       0   27220   27221   27221       0
   27223   27224   27224       0   27226   27227   27227       0   27229   27230
   27230       0   27232   27233   27233       0   27235   27236   27236       0
   27238   27239   27239       0   27241   27242   27242       0   27244   27245
   27245       0   27247   27248   27248       0   27250   27251   27251       0
   27253   27254   27254       0   27256   27257   27257       0   27259   27260
   27260       0   27262   27263   27263       0   27265   27266   27266       0
   27268   27269   27269       0   27271   27272   27272       0   27274   27275
   27275       0   27277   27278   27278       0   27280   27281   27281       0
   27283   27284   27284       0   27286   27287   27287       0   27289   27290
   27290       0   27292   27293   27293       0   27295   27296   27296       0
   27298   27299   27299       0   27301   27302   27302       0   27304   27305
   27305       0   27307   27308   27308       0   27310   27311   27311       0
   27313   27314   27314       0   27316   27317   27317       0   27319   27320
   27320       0   27322   27323   27323       0   27325   27326   27326       0
   27328   27329   27329       0   27331   27332   27332       0   27334   27335
   27335       0   27337   27338   27338       0   27340   27341   27341       0
   27343   27344   27344       0   27346   27347   27347       0   27349   27350
   27350       0   27352   27353   27353       0   27355   27356   27356       0
   27358   27359   27359       0   27361   27362   27362       0   27364   27365
   27365       0   27367   27368   27368       0   27370   27371   27371       0
   27373   27374   27374       0   27376   27377   27377       0   27379   27380
   27380       0   27382   27383   27383       0   27385   27386   27386       0
   27388   27389   27389       0   27391   27392   27392       0   27394   27395
   27395       0   27397   27398   27398       0   27400   27401   27401       0
   27403   27404   27404       0   27406   27407   27407       0   27409   27410
   27410       0   27412   27413   27413       0   27415   27416   27416       0
   27418   27419   27419       0   27421   27422   27422       0   27424   27425
   27425       0   27427   27428   27428       0   27430   27431   27431       0
   27433   27434   27434       0   27436   27437   27437       0   27439   27440
   27440       0   27442   27443   27443       0   27445   27446   27446       0
   27448   27449   27449       0   27451   27452   27452       0   27454   27455
   27455       0   27457   27458   27458       0   27460   27461   27461       0
   27463   27464   27464       0   27466   27467   27467       0   27469   27470
   27470       0   27472   27473   27473       0   27475   27476   27476       0
   27478   27479   27479       0   27481   27482   27482       0   27484   27485
   27485       0   27487   27488   27488       0   27490   27491   27491       0
   27493   27494   27494       0   27496   27497   27497       0   27499   27500
   27500       0   27502   27503   27503       0   27505   27506   27506       0
   27508   27509   27509       0   27511   27512   27512       0   27514   27515
   27515       0   27517   27518   27518       0   27520   27521   27521       0
   27523   27524   27524       0   27526   27527   27527       0   27529   27530
   27530       0   27532   27533   27533       0   27535   27536   27536       0
   27538   27539   27539       0   27541   27542   27542       0   27544   27545
   27545       0   27547   27548   27548       0   27550   27551   27551       0
   27553   27554   27554       0   27556   27557   27557       0   27559   27560
   27560       0   27562   27563   27563       0   27565   27566   27566       0
   27568   27569   27569       0   27571   27572   27572       0   27574   27575
   27575       0   27577   27578   27578       0   27580   27581   27581       0
   27583   27584   27584       0   27586   27587   27587       0   27589   27590
   27590       0   27592   27593   27593       0   27595   27596   27596       0
   27598   27599   27599       0   27601   27602   27602       0   27604   27605
   27605       0   27607   27608   27608       0   27610   27611   27611       0
   27613   27614   27614       0   27616   27617   27617       0   27619   27620
   27620       0   27622   27623   27623       0   27625   27626   27626       0
   27628   27629   27629       0   27631   27632   27632       0   27634   27635
   27635       0   27637   27638   27638       0   27640   27641   27641       0
   27643   27644   27644       0   27646   27647   27647       0   27649   27650
   27650       0   27652   27653   27653       0   27655   27656   27656       0
   27658   27659   27659       0   27661   27662   27662       0   27664   27665
   27665       0   27667   27668   27668       0   27670   27671   27671       0
   27673   27674   27674       0   27676   27677   27677       0   27679   27680
   27680       0   27682   27683   27683       0   27685   27686   27686       0
   27688   27689   27689       0   27691   27692   27692       0   27694   27695
   27695       0   27697   27698   27698       0   27700   27701   27701       0
   27703   27704   27704       0   27706   27707   27707       0   27709   27710
   27710       0   27712   27713   27713       0   27715   27716   27716       0
   27718   27719   27719       0   27721   27722   27722       0   27724   27725
   27725       0   27727   27728   27728       0   27730   27731   27731       0
   27733   27734   27734       0   27736   27737   27737       0   27739   27740
   27740       0   27742   27743   27743       0   27745   27746   27746       0
   27748   27749   27749       0   27751   27752   27752       0   27754   27755
   27755       0   27757   27758   27758       0   27760   27761   27761       0
   27763   27764   27764       0   27766   27767   27767       0   27769   27770
   27770       0   27772   27773   27773       0   27775   27776   27776       0
   27778   27779   27779       0   27781   27782   27782       0   27784   27785
   27785       0   27787   27788   27788       0   27790   27791   27791       0
   27793   27794   27794       0   27796   27797   27797       0   27799   27800
   27800       0   27802   27803   27803       0   27805   27806   27806       0
   27808   27809   27809       0   27811   27812   27812       0   27814   27815
   27815       0   27817   27818   27818       0   27820   27821   27821       0
   27823   27824   27824       0   27826   27827   27827       0   27829   27830
   27830       0   27832   27833   27833       0   27835   27836   27836       0
   27838   27839   27839       0   27841   27842   27842       0   27844   27845
   27845       0   27847   27848   27848       0   27850   27851   27851       0
   27853   27854   27854       0   27856   27857   27857       0   27859   27860
   27860       0   27862   27863   27863       0   27865   27866   27866       0
   27868   27869   27869       0   27871   27872   27872       0   27874   27875
   27875       0   27877   27878   27878       0   27880   27881   27881       0
   27883   27884   27884       0   27886   27887   27887       0   27889   27890
   27890       0   27892   27893   27893       0   27895   27896   27896       0
   27898   27899   27899       0   27901   27902   27902       0   27904   27905
   27905       0   27907   27908   27908       0   27910   27911   27911       0
   27913   27914   27914       0   27916   27917   27917       0   27919   27920
   27920       0   27922   27923   27923       0   27925   27926   27926       0
   27928   27929   27929       0   27931   27932   27932       0   27934   27935
   27935       0   27937   27938   27938       0   27940   27941   27941       0
   27943   27944   27944       0   27946   27947   27947       0   27949   27950
   27950       0   27952   27953   27953       0   27955   27956   27956       0
   27958   27959   27959       0   27961   27962   27962       0   27964   27965
   27965       0   27967   27968   27968       0   27970   27971   27971       0
   27973   27974   27974       0   27976   27977   27977       0   27979   27980
   27980       0   27982   27983   27983       0   27985   27986   27986       0
   27988   27989   27989       0   27991   27992   27992       0   27994   27995
   27995       0   27997   27998   27998       0   28000   28001   28001       0
   28003   28004   28004       0   28006   28007   28007       0   28009   28010
   28010       0   28012   28013   28013       0   28015   28016   28016       0
   28018   28019   28019       0   28021   28022   28022       0   28024   28025
   28025       0   28027   28028   28028       0   28030   28031   28031       0
   28033   28034   28034       0   28036   28037   28037       0   28039   28040
   28040       0   28042   28043   28043       0   28045   28046   28046       0
   28048   28049   28049       0   28051   28052   28052       0   28054   28055
   28055       0   28057   28058   28058       0   28060   28061   28061       0
   28063   28064   28064       0   28066   28067   28067       0   28069   28070
   28070       0   28072   28073   28073       0   28075   28076   28076       0
   28078   28079   28079       0   28081   28082   28082       0   28084   28085
   28085       0   28087   28088   28088       0   28090   28091   28091       0
   28093   28094   28094       0   28096   28097   28097       0   28099   28100
   28100       0   28102   28103   28103       0   28105   28106   28106       0
   28108   28109   28109       0   28111   28112   28112       0   28114   28115
   28115       0   28117   28118   28118       0   28120   28121   28121       0
   28123   28124   28124       0   28126   28127   28127       0   28129   28130
   28130       0   28132   28133   28133       0   28135   28136   28136       0
   28138   28139   28139       0   28141   28142   28142       0   28144   28145
   28145       0   28147   28148   28148       0   28150   28151   28151       0
   28153   28154   28154       0   28156   28157   28157       0   28159   28160
   28160       0   28162   28163   28163       0   28165   28166   28166       0
   28168   28169   28169       0   28171   28172   28172       0   28174   28175
   28175       0   28177   28178   28178       0   28180   28181   28181       0
   28183   28184   28184       0   28186   28187   28187       0   28189   28190
   28190       0   28192   28193   28193       0   28195   28196   28196       0
   28198   28199   28199       0   28201   28202   28202       0   28204   28205
   28205       0   28207   28208   28208       0   28210   28211   28211       0
   28213   28214   28214       0   28216   28217   28217       0   28219   28220
   28220       0   28222   28223   28223       0   28225   28226   28226       0
   28228   28229   28229       0   28231   28232   28232       0   28234   28235
   28235       0   28237   28238   28238       0   28240   28241   28241       0
   28243   28244   28244       0   28246   28247   28247       0   28249   28250
   28250       0   28252   28253   28253       0   28255   28256   28256       0
   28258   28259   28259       0   28261   28262   28262       0   28264   28265
   28265       0   28267   28268   28268       0   28270   28271   28271       0
   28273   28274   28274       0   28276   28277   28277       0   28279   28280
   28280       0   28282   28283   28283       0   28285   28286   28286       0
   28288   28289   28289       0   28291   28292   28292       0   28294   28295
   28295       0   28297   28298   28298       0   28300   28301   28301       0
   28303   28304   28304       0   28306   28307   28307       0   28309   28310
   28310       0   28312   28313   28313       0   28315   28316   28316       0
   28318   28319   28319       0   28321   28322   28322       0   28324   28325
   28325       0   28327   28328   28328       0   28330   28331   28331       0
   28333   28334   28334       0   28336   28337   28337       0   28339   28340
   28340       0   28342   28343   28343       0   28345   28346   28346       0
   28348   28349   28349       0   28351   28352   28352       0   28354   28355
   28355       0   28357   28358   28358       0   28360   28361   28361       0
   28363   28364   28364       0   28366   28367   28367       0   28369   28370
   28370       0   28372   28373   28373       0   28375   28376   28376       0
   28378   28379   28379       0   28381   28382   28382       0   28384   28385
   28385       0   28387   28388   28388       0   28390   28391   28391       0
   28393   28394   28394       0   28396   28397   28397       0   28399   28400
   28400       0   28402   28403   28403       0   28405   28406   28406       0
   28408   28409   28409       0   28411   28412   28412       0   28414   28415
   28415       0   28417   28418   28418       0   28420   28421   28421       0
   28423   28424   28424       0   28426   28427   28427       0   28429   28430
   28430       0   28432   28433   28433       0   28435   28436   28436       0
   28438   28439   28439       0   28441   28442   28442       0   28444   28445
   28445       0   28447   28448   28448       0   28450   28451   28451       0
   28453   28454   28454       0   28456   28457   28457       0   28459   28460
   28460       0   28462   28463   28463       0   28465   28466   28466       0
   28468   28469   28469       0   28471   28472   28472       0   28474   28475
   28475       0   28477   28478   28478       0   28480   28481   28481       0
   28483   28484   28484       0   28486   28487   28487       0   28489   28490
   28490       0   28492   28493   28493       0   28495   28496   28496       0
   28498   28499   28499       0   28501   28502   28502       0   28504   28505
   28505       0   28507   28508   28508       0   28510   28511   28511       0
   28513   28514   28514       0   28516   28517   28517       0   28519   28520
   28520       0   28522   28523   28523       0   28525   28526   28526       0
   28528   28529   28529       0   28531   28532   28532       0   28534   28535
   28535       0   28537   28538   28538       0   28540   28541   28541       0
   28543   28544   28544       0   28546   28547   28547       0   28549   28550
   28550       0   28552   28553   28553       0   28555   28556   28556       0
   28558   28559   28559       0   28561   28562   28562       0   28564   28565
   28565       0   28567   28568   28568       0   28570   28571   28571       0
   28573   28574   28574       0   28576   28577   28577       0   28579   28580
   28580       0   28582   28583   28583       0   28585   28586   28586       0
   28588   28589   28589       0   28591   28592   28592       0   28594   28595
   28595       0   28597   28598   28598       0   28600   28601   28601       0
   28603   28604   28604       0   28606   28607   28607       0   28609   28610
   28610       0   28612   28613   28613       0   28615   28616   28616       0
   28618   28619   28619       0   28621   28622   28622       0   28624   28625
   28625       0   28627   28628   28628       0   28630   28631   28631       0
   28633   28634   28634       0   28636   28637   28637       0   28639   28640
   28640       0   28642   28643   28643       0   28645   28646   28646       0
   28648   28649   28649       0   28651   28652   28652       0   28654   28655
   28655       0   28657   28658   28658       0   28660   28661   28661       0
   28663   28664   28664       0   28666   28667   28667       0   28669   28670
   28670       0   28672   28673   28673       0   28675   28676   28676       0
   28678   28679   28679       0   28681   28682   28682       0   28684   28685
   28685       0   28687   28688   28688       0   28690   28691   28691       0
   28693   28694   28694       0   28696   28697   28697       0   28699   28700
   28700       0   28702   28703   28703       0   28705   28706   28706       0
   28708   28709   28709       0   28711   28712   28712       0   28714   28715
   28715       0   28717   28718   28718       0   28720   28721   28721       0
   28723   28724   28724       0   28726   28727   28727       0   28729   28730
   28730       0   28732   28733   28733       0   28735   28736   28736       0
   28738   28739   28739       0   28741   28742   28742       0   28744   28745
   28745       0   28747   28748   28748       0   28750   28751   28751       0
   28753   28754   28754       0   28756   28757   28757       0   28759   28760
   28760       0   28762   28763   28763       0   28765   28766   28766       0
   28768   28769   28769       0   28771   28772   28772       0   28774   28775
   28775       0   28777   28778   28778       0   28780   28781   28781       0
   28783   28784   28784       0   28786   28787   28787       0   28789   28790
   28790       0   28792   28793   28793       0   28795   28796   28796       0
   28798   28799   28799       0   28801   28802   28802       0   28804   28805
   28805       0   28807   28808   28808       0   28810   28811   28811       0
   28813   28814   28814       0   28816   28817   28817       0   28819   28820
   28820       0   28822   28823   28823       0   28825   28826   28826       0
   28828   28829   28829       0   28831   28832   28832       0   28834   28835
   28835       0   28837   28838   28838       0   28840   28841   28841       0
   28843   28844   28844       0   28846   28847   28847       0   28849   28850
   28850       0   28852   28853   28853       0   28855   28856   28856       0
   28858   28859   28859       0   28861   28862   28862       0   28864   28865
   28865       0   28867   28868   28868       0   28870   28871   28871       0
   28873   28874   28874       0   28876   28877   28877       0   28879   28880
   28880       0   28882   28883   28883       0   28885   28886   28886       0
   28888   28889   28889       0   28891   28892   28892       0   28894   28895
   28895       0   28897   28898   28898       0   28900   28901   28901       0
   28903   28904   28904       0   28906   28907   28907       0   28909   28910
   28910       0   28912   28913   28913       0   28915   28916   28916       0
   28918   28919   28919       0   28921   28922   28922       0   28924   28925
   28925       0   28927   28928   28928       0   28930   28931   28931       0
   28933   28934   28934       0   28936   28937   28937       0   28939   28940
   28940       0   28942   28943   28943       0   28945   28946   28946       0
   28948   28949   28949       0   28951   28952   28952       0   28954   28955
   28955       0   28957   28958   28958       0   28960   28961   28961       0
   28963   28964   28964       0   28966   28967   28967       0   28969   28970
   28970       0   28972   28973   28973       0   28975   28976   28976       0
   28978   28979   28979       0   28981   28982   28982       0   28984   28985
   28985       0   28987   28988   28988       0   28990   28991   28991       0
   28993   28994   28994       0   28996   28997   28997       0   28999   29000
   29000       0   29002   29003   29003       0   29005   29006   29006       0
   29008   29009   29009       0   29011   29012   29012       0   29014   29015
   29015       0   29017   29018   29018       0   29020   29021   29021       0
   29023   29024   29024       0   29026   29027   29027       0   29029   29030
   29030       0   29032   29033   29033       0   29035   29036   29036       0
   29038   29039   29039       0   29041   29042   29042       0   29044   29045
   29045       0   29047   29048   29048       0   29050   29051   29051       0
   29053   29054   29054       0   29056   29057   29057       0   29059   29060
   29060       0   29062   29063   29063       0   29065   29066   29066       0
   29068   29069   29069       0   29071   29072   29072       0   29074   29075
   29075       0   29077   29078   29078       0   29080   29081   29081       0
   29083   29084   29084       0   29086   29087   29087       0   29089   29090
   29090       0   29092   29093   29093       0   29095   29096   29096       0
   29098   29099   29099       0   29101   29102   29102       0   29104   29105
   29105       0   29107   29108   29108       0   29110   29111   29111       0
   29113   29114   29114       0   29116   29117   29117       0   29119   29120
   29120       0   29122   29123   29123       0   29125   29126   29126       0
   29128   29129   29129       0   29131   29132   29132       0   29134   29135
   29135       0   29137   29138   29138       0   29140   29141   29141       0
   29143   29144   29144       0   29146   29147   29147       0   29149   29150
   29150       0   29152   29153   29153       0   29155   29156   29156       0
   29158   29159   29159       0   29161   29162   29162       0   29164   29165
   29165       0   29167   29168   29168       0   29170   29171   29171       0
   29173   29174   29174       0   29176   29177   29177       0   29179   29180
   29180       0   29182   29183   29183       0   29185   29186   29186       0
   29188   29189   29189       0   29191   29192   29192       0   29194   29195
   29195       0   29197   29198   29198       0   29200   29201   29201       0
   29203   29204   29204       0   29206   29207   29207       0   29209   29210
   29210       0   29212   29213   29213       0   29215   29216   29216       0
   29218   29219   29219       0   29221   29222   29222       0   29224   29225
   29225       0   29227   29228   29228       0   29230   29231   29231       0
   29233   29234   29234       0   29236   29237   29237       0   29239   29240
   29240       0   29242   29243   29243       0   29245   29246   29246       0
   29248   29249   29249       0   29251   29252   29252       0   29254   29255
   29255       0   29257   29258   29258       0   29260   29261   29261       0
   29263   29264   29264       0   29266   29267   29267       0   29269   29270
   29270       0   29272   29273   29273       0   29275   29276   29276       0
   29278   29279   29279       0   29281   29282   29282       0   29284   29285
   29285       0   29287   29288   29288       0   29290   29291   29291       0
   29293   29294   29294       0   29296   29297   29297       0   29299   29300
   29300       0   29302   29303   29303       0   29305   29306   29306       0
   29308   29309   29309       0   29311   29312   29312       0   29314   29315
   29315       0   29317   29318   29318       0   29320   29321   29321       0
   29323   29324   29324       0   29326   29327   29327       0   29329   29330
   29330       0   29332   29333   29333       0   29335   29336   29336       0
   29338   29339   29339       0   29341   29342   29342       0   29344   29345
   29345       0   29347   29348   29348       0   29350   29351   29351       0
   29353   29354   29354       0   29356   29357   29357       0   29359   29360
   29360       0   29362   29363   29363       0   29365   29366   29366       0
   29368   29369   29369       0   29371   29372   29372       0   29374   29375
   29375       0   29377   29378   29378       0   29380   29381   29381       0
   29383   29384   29384       0   29386   29387   29387       0   29389   29390
   29390       0   29392   29393   29393       0   29395   29396   29396       0
   29398   29399   29399       0   29401   29402   29402       0   29404   29405
   29405       0   29407   29408   29408       0   29410   29411   29411       0
   29413   29414   29414       0   29416   29417   29417       0   29419   29420
   29420       0   29422   29423   29423       0   29425   29426   29426       0
   29428   29429   29429       0   29431   29432   29432       0   29434   29435
   29435       0   29437   29438   29438       0   29440   29441   29441       0
   29443   29444   29444       0   29446   29447   29447       0   29449   29450
   29450       0   29452   29453   29453       0   29455   29456   29456       0
   29458   29459   29459       0   29461   29462   29462       0   29464   29465
   29465       0   29467   29468   29468       0   29470   29471   29471       0
   29473   29474   29474       0   29476   29477   29477       0   29479   29480
   29480       0   29482   29483   29483       0   29485   29486   29486       0
   29488   29489   29489       0   29491   29492   29492       0   29494   29495
   29495       0   29497   29498   29498       0   29500   29501   29501       0
   29503   29504   29504       0   29506   29507   29507       0   29509   29510
   29510       0   29512   29513   29513       0   29515   29516   29516       0
   29518   29519   29519       0   29521   29522   29522       0   29524   29525
   29525       0   29527   29528   29528       0   29530   29531   29531       0
   29533   29534   29534       0   29536   29537   29537       0   29539   29540
   29540       0   29542   29543   29543       0   29545   29546   29546       0
   29548   29549   29549       0   29551   29552   29552       0   29554   29555
   29555       0   29557   29558   29558       0   29560   29561   29561       0
   29563   29564   29564       0   29566   29567   29567       0   29569   29570
   29570       0   29572   29573   29573       0   29575   29576   29576       0
   29578   29579   29579       0   29581   29582   29582       0   29584   29585
   29585       0   29587   29588   29588       0   29590   29591   29591       0
   29593   29594   29594       0   29596   29597   29597       0   29599   29600
   29600       0   29602   29603   29603       0   29605   29606   29606       0
   29608   29609   29609       0   29611   29612   29612       0   29614   29615
   29615       0   29617   29618   29618       0   29620   29621   29621       0
   29623   29624   29624       0   29626   29627   29627       0   29629   29630
   29630       0   29632   29633   29633       0   29635   29636   29636       0
   29638   29639   29639       0   29641   29642   29642       0   29644   29645
   29645       0   29647   29648   29648       0   29650   29651   29651       0
   29653   29654   29654       0   29656   29657   29657       0   29659   29660
   29660       0   29662   29663   29663       0   29665   29666   29666       0
   29668   29669   29669       0   29671   29672   29672       0   29674   29675
   29675       0   29677   29678   29678       0   29680   29681   29681       0
   29683   29684   29684       0   29686   29687   29687       0   29689   29690
   29690       0   29692   29693   29693       0   29695   29696   29696       0
   29698   29699   29699       0   29701   29702   29702       0   29704   29705
   29705       0   29707   29708   29708       0   29710   29711   29711       0
   29713   29714   29714       0   29716   29717   29717       0   29719   29720
   29720       0   29722   29723   29723       0   29725   29726   29726       0
   29728   29729   29729       0   29731   29732   29732       0   29734   29735
   29735       0   29737   29738   29738       0   29740   29741   29741       0
   29743   29744   29744       0   29746   29747   29747       0   29749   29750
   29750       0   29752   29753   29753       0   29755   29756   29756       0
   29758   29759   29759       0   29761   29762   29762       0   29764   29765
   29765       0   29767   29768   29768       0   29770   29771   29771       0
   29773   29774   29774       0   29776   29777   29777       0   29779   29780
   29780       0   29782   29783   29783       0   29785   29786   29786       0
   29788   29789   29789       0   29791   29792   29792       0   29794   29795
   29795       0   29797   29798   29798       0   29800   29801   29801       0
   29803   29804   29804       0   29806   29807   29807       0   29809   29810
   29810       0   29812   29813   29813       0   29815   29816   29816       0
   29818   29819   29819       0   29821   29822   29822       0   29824   29825
   29825       0   29827   29828   29828       0   29830   29831   29831       0
   29833   29834   29834       0   29836   29837   29837       0   29839   29840
   29840       0   29842   29843   29843       0   29845   29846   29846       0
   29848   29849   29849       0   29851   29852   29852       0   29854   29855
   29855       0   29857   29858   29858       0   29860   29861   29861       0
   29863   29864   29864       0   29866   29867   29867       0   29869   29870
   29870       0   29872   29873   29873       0   29875   29876   29876       0
   29878   29879   29879       0   29881   29882   29882       0   29884   29885
   29885       0   29887   29888   29888       0   29890   29891   29891       0
   29893   29894   29894       0   29896   29897   29897       0   29899   29900
   29900       0   29902   29903   29903       0   29905   29906   29906       0
   29908   29909   29909       0   29911   29912   29912       0   29914   29915
   29915       0   29917   29918   29918       0   29920   29921   29921       0
   29923   29924   29924       0   29926   29927   29927       0   29929   29930
   29930       0   29932   29933   29933       0   29935   29936   29936       0
   29938   29939   29939       0   29941   29942   29942       0   29944   29945
   29945       0   29947   29948   29948       0   29950   29951   29951       0
   29953   29954   29954       0   29956   29957   29957       0   29959   29960
   29960       0   29962   29963   29963       0   29965   29966   29966       0
   29968   29969   29969       0   29971   29972   29972       0   29974   29975
   29975       0   29977   29978   29978       0   29980   29981   29981       0
   29983   29984   29984       0   29986   29987   29987       0   29989   29990
   29990       0   29992   29993   29993       0   29995   29996   29996       0
   29998   29999   29999       0   30001   30002   30002       0   30004   30005
   30005       0   30007   30008   30008       0   30010   30011   30011       0
   30013   30014   30014       0   30016   30017   30017       0   30019   30020
   30020       0   30022   30023   30023       0   30025   30026   30026       0
   30028   30029   30029       0   30031   30032   30032       0   30034   30035
   30035       0   30037   30038   30038       0   30040   30041   30041       0
   30043   30044   30044       0   30046   30047   30047       0   30049   30050
   30050       0   30052   30053   30053       0   30055   30056   30056       0
   30058   30059   30059       0   30061   30062   30062       0   30064   30065
   30065       0   30067   30068   30068       0   30070   30071   30071       0
   30073   30074   30074       0   30076   30077   30077       0   30079   30080
   30080       0   30082   30083   30083       0   30085   30086   30086       0
   30088   30089   30089       0   30091   30092   30092       0   30094   30095
   30095       0   30097   30098   30098       0   30100   30101   30101       0
   30103   30104   30104       0   30106   30107   30107       0   30109   30110
   30110       0   30112   30113   30113       0   30115   30116   30116       0
   30118   30119   30119       0   30121   30122   30122       0   30124   30125
   30125       0   30127   30128   30128       0   30130   30131   30131       0
   30133   30134   30134       0   30136   30137   30137       0   30139   30140
   30140       0   30142   30143   30143       0   30145   30146   30146       0
   30148   30149   30149       0   30151   30152   30152       0   30154   30155
   30155       0   30157   30158   30158       0   30160   30161   30161       0
   30163   30164   30164       0   30166   30167   30167       0   30169   30170
   30170       0   30172   30173   30173       0   30175   30176   30176       0
   30178   30179   30179       0   30181   30182   30182       0   30184   30185
   30185       0   30187   30188   30188       0   30190   30191   30191       0
   30193   30194   30194       0   30196   30197   30197       0   30199   30200
   30200       0   30202   30203   30203       0   30205   30206   30206       0
   30208   30209   30209       0   30211   30212   30212       0   30214   30215
   30215       0   30217   30218   30218       0   30220   30221   30221       0
   30223   30224   30224       0   30226   30227   30227       0   30229   30230
   30230       0   30232   30233   30233       0   30235   30236   30236       0
   30238   30239   30239       0   30241   30242   30242       0   30244   30245
   30245       0   30247   30248   30248       0   30250   30251   30251       0
   30253   30254   30254       0   30256   30257   30257       0   30259   30260
   30260       0   30262   30263   30263       0   30265   30266   30266       0
   30268   30269   30269       0   30271   30272   30272       0   30274   30275
   30275       0   30277   30278   30278       0   30280   30281   30281       0
   30283   30284   30284       0   30286   30287   30287       0   30289   30290
   30290       0   30292   30293   30293       0   30295   30296   30296       0
   30298   30299   30299       0   30301   30302   30302       0   30304   30305
   30305       0   30307   30308   30308       0   30310   30311   30311       0
   30313   30314   30314       0   30316   30317   30317       0   30319   30320
   30320       0   30322   30323   30323       0   30325   30326   30326       0
   30328   30329   30329       0   30331   30332   30332       0   30334   30335
   30335       0   30337   30338   30338       0   30340   30341   30341       0
   30343   30344   30344       0   30346   30347   30347       0   30349   30350
   30350       0   30352   30353   30353       0   30355   30356   30356       0
   30358   30359   30359       0   30361   30362   30362       0   30364   30365
   30365       0   30367   30368   30368       0   30370   30371   30371       0
   30373   30374   30374       0   30376   30377   30377       0   30379   30380
   30380       0   30382   30383   30383       0   30385   30386   30386       0
   30388   30389   30389       0   30391   30392   30392       0   30394   30395
   30395       0   30397   30398   30398       0   30400   30401   30401       0
   30403   30404   30404       0   30406   30407   30407       0   30409   30410
   30410       0   30412   30413   30413       0   30415   30416   30416       0
   30418   30419   30419       0   30421   30422   30422       0   30424   30425
   30425       0   30427   30428   30428       0   30430   30431   30431       0
   30433   30434   30434       0   30436   30437   30437       0   30439   30440
   30440       0   30442   30443   30443       0   30445   30446   30446       0
   30448   30449   30449       0   30451   30452   30452       0   30454   30455
   30455       0   30457   30458   30458       0   30460   30461   30461       0
   30463   30464   30464       0   30466   30467   30467       0   30469   30470
   30470       0   30472   30473   30473       0   30475   30476   30476       0
   30478   30479   30479       0   30481   30482   30482       0   30484   30485
   30485       0   30487   30488   30488       0   30490   30491   30491       0
   30493   30494   30494       0   30496   30497   30497       0   30499   30500
   30500       0   30502   30503   30503       0   30505   30506   30506       0
   30508   30509   30509       0   30511   30512   30512       0   30514   30515
   30515       0   30517   30518   30518       0   30520   30521   30521       0
   30523   30524   30524       0   30526   30527   30527       0   30529   30530
   30530       0   30532   30533   30533       0   30535   30536   30536       0
   30538   30539   30539       0   30541   30542   30542       0   30544   30545
   30545       0   30547   30548   30548       0   30550   30551   30551       0
   30553   30554   30554       0   30556   30557   30557       0   30559   30560
   30560       0   30562   30563   30563       0   30565   30566   30566       0
   30568   30569   30569       0   30571   30572   30572       0   30574   30575
   30575       0   30577   30578   30578       0   30580   30581   30581       0
   30583   30584   30584       0   30586   30587   30587       0   30589   30590
   30590       0   30592   30593   30593       0   30595   30596   30596       0
   30598   30599   30599       0   30601   30602   30602       0   30604   30605
   30605       0   30607   30608   30608       0   30610   30611   30611       0
   30613   30614   30614       0   30616   30617   30617       0   30619   30620
   30620       0   30622   30623   30623       0   30625   30626   30626       0
   30628   30629   30629       0   30631   30632   30632       0   30634   30635
   30635       0   30637   30638   30638       0   30640   30641   30641       0
   30643   30644   30644       0   30646   30647   30647       0   30649   30650
   30650       0   30652   30653   30653       0   30655   30656   30656       0
   30658   30659   30659       0   30661   30662   30662       0   30664   30665
   30665       0   30667   30668   30668       0   30670   30671   30671       0
   30673   30674   30674       0   30676   30677   30677       0   30679   30680
   30680       0   30682   30683   30683       0   30685   30686   30686       0
   30688   30689   30689       0   30691   30692   30692       0   30694   30695
   30695       0   30697   30698   30698       0   30700   30701   30701       0
   30703   30704   30704       0   30706   30707   30707       0   30709   30710
   30710       0   30712   30713   30713       0   30715   30716   30716       0
   30718   30719   30719       0   30721   30722   30722       0   30724   30725
   30725       0   30727   30728   30728       0   30730   30731   30731       0
   30733   30734   30734       0   30736   30737   30737       0   30739   30740
   30740       0   30742   30743   30743       0   30745   30746   30746       0
   30748   30749   30749       0   30751   30752   30752       0   30754   30755
   30755       0   30757   30758   30758       0   30760   30761   30761       0
   30763   30764   30764       0   30766   30767   30767       0   30769   30770
   30770       0   30772   30773   30773       0   30775   30776   30776       0
   30778   30779   30779       0   30781   30782   30782       0   30784   30785
   30785       0   30787   30788   30788       0   30790   30791   30791       0
   30793   30794   30794       0   30796   30797   30797       0   30799   30800
   30800       0   30802   30803   30803       0   30805   30806   30806       0
   30808   30809   30809       0   30811   30812   30812       0   30814   30815
   30815       0   30817   30818   30818       0   30820   30821   30821       0
   30823   30824   30824       0   30826   30827   30827       0   30829   30830
   30830       0   30832   30833   30833       0   30835   30836   30836       0
   30838   30839   30839       0   30841   30842   30842       0   30844   30845
   30845       0   30847   30848   30848       0   30850   30851   30851       0
   30853   30854   30854       0   30856   30857   30857       0   30859   30860
   30860       0   30862   30863   30863       0   30865   30866   30866       0
   30868   30869   30869       0   30871   30872   30872       0   30874   30875
   30875       0   30877   30878   30878       0   30880   30881   30881       0
   30883   30884   30884       0   30886   30887   30887       0   30889   30890
   30890       0   30892   30893   30893       0   30895   30896   30896       0
   30898   30899   30899       0   30901   30902   30902       0   30904   30905
   30905       0   30907   30908   30908       0   30910   30911   30911       0
   30913   30914   30914       0   30916   30917   30917       0   30919   30920
   30920       0   30922   30923   30923       0   30925   30926   30926       0
   30928   30929   30929       0   30931   30932   30932       0   30934   30935
   30935       0   30937   30938   30938       0   30940   30941   30941       0
   30943   30944   30944       0   30946   30947   30947       0   30949   30950
   30950       0   30952   30953   30953       0   30955   30956   30956       0
   30958   30959   30959       0   30961   30962   30962       0   30964   30965
   30965       0   30967   30968   30968       0   30970   30971   30971       0
   30973   30974   30974       0   30976   30977   30977       0   30979   30980
   30980       0   30982   30983   30983       0   30985   30986   30986       0
   30988   30989   30989       0   30991   30992   30992       0   30994   30995
   30995       0   30997   30998   30998       0   31000   31001   31001       0
   31003   31004   31004       0   31006   31007   31007       0   31009   31010
   31010       0   31012   31013   31013       0   31015   31016   31016       0
   31018   31019   31019       0   31021   31022   31022       0   31024   31025
   31025       0   31027   31028   31028       0   31030   31031   31031       0
   31033   31034   31034       0   31036   31037   31037       0   31039   31040
   31040       0   31042   31043   31043       0   31045   31046   31046       0
   31048   31049   31049       0   31051   31052   31052       0   31054   31055
   31055       0   31057   31058   31058       0   31060   31061   31061       0
   31063   31064   31064       0   31066   31067   31067       0   31069   31070
   31070       0   31072   31073   31073       0   31075   31076   31076       0
   31078   31079   31079       0   31081   31082   31082       0   31084   31085
   31085       0   31087   31088   31088       0   31090   31091   31091       0
   31093   31094   31094       0   31096   31097   31097       0   31099   31100
   31100       0   31102   31103   31103       0   31105   31106   31106       0
   31108   31109   31109       0   31111   31112   31112       0   31114   31115
   31115       0   31117   31118   31118       0   31120   31121   31121       0
   31123   31124   31124       0   31126   31127   31127       0   31129   31130
   31130       0   31132   31133   31133       0   31135   31136   31136       0
   31138   31139   31139       0   31141   31142   31142       0   31144   31145
   31145       0   31147   31148   31148       0   31150   31151   31151       0
   31153   31154   31154       0   31156   31157   31157       0   31159   31160
   31160       0   31162   31163   31163       0   31165   31166   31166       0
   31168   31169   31169       0   31171   31172   31172       0   31174   31175
   31175       0   31177   31178   31178       0   31180   31181   31181       0
   31183   31184   31184       0   31186   31187   31187       0   31189   31190
   31190       0   31192   31193   31193       0   31195   31196   31196       0
   31198   31199   31199       0   31201   31202   31202       0   31204   31205
   31205       0   31207   31208   31208       0   31210   31211   31211       0
   31213   31214   31214       0   31216   31217   31217       0   31219   31220
   31220       0   31222   31223   31223       0   31225   31226   31226       0
   31228   31229   31229       0   31231   31232   31232       0   31234   31235
   31235       0   31237   31238   31238       0   31240   31241   31241       0
   31243   31244   31244       0   31246   31247   31247       0   31249   31250
   31250       0   31252   31253   31253       0   31255   31256   31256       0
   31258   31259   31259       0   31261   31262   31262       0   31264   31265
   31265       0   31267   31268   31268       0   31270   31271   31271       0
   31273   31274   31274       0   31276   31277   31277       0   31279   31280
   31280       0   31282   31283   31283       0   31285   31286   31286       0
   31288   31289   31289       0   31291   31292   31292       0   31294   31295
   31295       0   31297   31298   31298       0   31300   31301   31301       0
   31303   31304   31304       0   31306   31307   31307       0   31309   31310
   31310       0   31312   31313   31313       0   31315   31316   31316       0
   31318   31319   31319       0   31321   31322   31322       0   31324   31325
   31325       0   31327   31328   31328       0   31330   31331   31331       0
   31333   31334   31334       0   31336   31337   31337       0   31339   31340
   31340       0   31342   31343   31343       0   31345   31346   31346       0
   31348   31349   31349       0   31351   31352   31352       0   31354   31355
   31355       0   31357   31358   31358       0   31360   31361   31361       0
   31363   31364   31364       0   31366   31367   31367       0   31369   31370
   31370       0   31372   31373   31373       0   31375   31376   31376       0
   31378   31379   31379       0   31381   31382   31382       0   31384   31385
   31385       0   31387   31388   31388       0   31390   31391   31391       0
   31393   31394   31394       0   31396   31397   31397       0   31399   31400
   31400       0   31402   31403   31403       0   31405   31406   31406       0
   31408   31409   31409       0   31411   31412   31412       0   31414   31415
   31415       0   31417   31418   31418       0   31420   31421   31421       0
   31423   31424   31424       0   31426   31427   31427       0   31429   31430
   31430       0   31432   31433   31433       0   31435   31436   31436       0
   31438   31439   31439       0   31441   31442   31442       0   31444   31445
   31445       0   31447   31448   31448       0   31450   31451   31451       0
   31453   31454   31454       0   31456   31457   31457       0   31459   31460
   31460       0   31462   31463   31463       0   31465   31466   31466       0
   31468   31469   31469       0   31471   31472   31472       0   31474   31475
   31475       0   31477   31478   31478       0   31480   31481   31481       0
   31483   31484   31484       0   31486   31487   31487       0   31489   31490
   31490       0   31492   31493   31493       0   31495   31496   31496       0
   31498   31499   31499       0   31501   31502   31502       0   31504   31505
   31505       0   31507   31508   31508       0   31510   31511   31511       0
   31513   31514   31514       0   31516   31517   31517       0   31519   31520
   31520       0   31522   31523   31523       0   31525   31526   31526       0
   31528   31529   31529       0   31531   31532   31532       0   31534   31535
   31535       0   31537   31538   31538       0   31540   31541   31541       0
   31543   31544   31544       0   31546   31547   31547       0   31549   31550
   31550       0   31552   31553   31553       0   31555   31556   31556       0
   31558   31559   31559       0   31561   31562   31562       0   31564   31565
   31565       0   31567   31568   31568       0   31570   31571   31571       0
   31573   31574   31574       0   31576   31577   31577       0   31579   31580
   31580       0   31582   31583   31583       0   31585   31586   31586       0
   31588   31589   31589       0   31591   31592   31592       0   31594   31595
   31595       0   31597   31598   31598       0   31600   31601   31601       0
   31603   31604   31604       0   31606   31607   31607       0   31609   31610
   31610       0   31612   31613   31613       0   31615   31616   31616       0
   31618   31619   31619       0   31621   31622   31622       0   31624   31625
   31625       0   31627   31628   31628       0   31630   31631   31631       0
   31633   31634   31634       0   31636   31637   31637       0   31639   31640
   31640       0   31642   31643   31643       0   31645   31646   31646       0
   31648   31649   31649       0   31651   31652   31652       0   31654   31655
   31655       0   31657   31658   31658       0   31660   31661   31661       0
   31663   31664   31664       0   31666   31667   31667       0   31669   31670
   31670       0   31672   31673   31673       0   31675   31676   31676       0
   31678   31679   31679       0   31681   31682   31682       0   31684   31685
   31685       0   31687   31688   31688       0   31690   31691   31691       0
   31693   31694   31694       0   31696   31697   31697       0   31699   31700
   31700       0   31702   31703   31703       0   31705   31706   31706       0
   31708   31709   31709       0   31711   31712   31712       0   31714   31715
   31715       0   31717   31718   31718       0   31720   31721   31721       0
   31723   31724   31724       0   31726   31727   31727       0   31729   31730
   31730       0   31732   31733   31733       0   31735   31736   31736       0
   31738   31739   31739       0   31741   31742   31742       0   31744   31745
   31745       0   31747   31748   31748       0   31750   31751   31751       0
   31753   31754   31754       0   31756   31757   31757       0   31759   31760
   31760       0   31762   31763   31763       0   31765   31766   31766       0
   31768   31769   31769       0   31771   31772   31772       0   31774   31775
   31775       0   31777   31778   31778       0   31780   31781   31781       0
   31783   31784   31784       0   31786   31787   31787       0   31789   31790
   31790       0   31792   31793   31793       0   31795   31796   31796       0
   31798   31799   31799       0   31801   31802   31802       0   31804   31805
   31805       0   31807   31808   31808       0   31810   31811   31811       0
   31813   31814   31814       0   31816   31817   31817       0   31819   31820
   31820       0   31822   31823   31823       0   31825   31826   31826       0
   31828   31829   31829       0   31831   31832   31832       0   31834   31835
   31835       0   31837   31838   31838       0   31840   31841   31841       0
   31843   31844   31844       0   31846   31847   31847       0   31849   31850
   31850       0   31852   31853   31853       0   31855   31856   31856       0
   31858   31859   31859       0   31861   31862   31862       0   31864   31865
   31865       0   31867   31868   31868       0   31870   31871   31871       0
   31873   31874   31874       0   31876   31877   31877       0   31879   31880
   31880       0   31882   31883   31883       0   31885   31886   31886       0
   31888   31889   31889       0   31891   31892   31892       0   31894   31895
   31895       0   31897   31898   31898       0   31900   31901   31901       0
   31903   31904   31904       0   31906   31907   31907       0   31909   31910
   31910       0   31912   31913   31913       0   31915   31916   31916       0
   31918   31919   31919       0   31921   31922   31922       0   31924   31925
   31925       0   31927   31928   31928       0   31930   31931   31931       0
   31933   31934   31934       0   31936   31937   31937       0   31939   31940
   31940       0   31942   31943   31943       0   31945   31946   31946       0
   31948   31949   31949       0   31951   31952   31952       0   31954   31955
   31955       0   31957   31958   31958       0   31960   31961   31961       0
   31963   31964   31964       0   31966   31967   31967       0   31969   31970
   31970       0   31972   31973   31973       0   31975   31976   31976       0
   31978   31979   31979       0   31981   31982   31982       0   31984   31985
   31985       0   31987   31988   31988       0   31990   31991   31991       0
   31993   31994   31994       0   31996   31997   31997       0   31999   32000
   32000       0   32002   32003   32003       0   32005   32006   32006       0
   32008   32009   32009       0   32011   32012   32012       0   32014   32015
   32015       0   32017   32018   32018       0   32020   32021   32021       0
   32023   32024   32024       0   32026   32027   32027       0   32029   32030
   32030       0   32032   32033   32033       0   32035   32036   32036       0
   32038   32039   32039       0   32041   32042   32042       0   32044   32045
   32045       0   32047   32048   32048       0   32050   32051   32051       0
   32053   32054   32054       0   32056   32057   32057       0   32059   32060
   32060       0   32062   32063   32063       0   32065   32066   32066       0
   32068   32069   32069       0   32071   32072   32072       0   32074   32075
   32075       0   32077   32078   32078       0   32080   32081   32081       0
   32083   32084   32084       0   32086   32087   32087       0   32089   32090
   32090       0   32092   32093   32093       0   32095   32096   32096       0
   32098   32099   32099       0   32101   32102   32102       0   32104   32105
   32105       0   32107   32108   32108       0   32110   32111   32111       0
   32113   32114   32114       0   32116   32117   32117       0   32119   32120
   32120       0   32122   32123   32123       0   32125   32126   32126       0
   32128   32129   32129       0   32131   32132   32132       0   32134   32135
   32135       0   32137   32138   32138       0   32140   32141   32141       0
   32143   32144   32144       0   32146   32147   32147       0   32149   32150
   32150       0   32152   32153   32153       0   32155   32156   32156       0
   32158   32159   32159       0   32161   32162   32162       0   32164   32165
   32165       0   32167   32168   32168       0   32170   32171   32171       0
   32173   32174   32174       0   32176   32177   32177       0   32179   32180
   32180       0   32182   32183   32183       0   32185   32186   32186       0
   32188   32189   32189       0   32191   32192   32192       0   32194   32195
   32195       0   32197   32198   32198       0   32200   32201   32201       0
   32203   32204   32204       0   32206   32207   32207       0   32209   32210
   32210       0   32212   32213   32213       0   32215   32216   32216       0
   32218   32219   32219       0   32221   32222   32222       0   32224   32225
   32225       0   32227   32228   32228       0   32230   32231   32231       0
   32233   32234   32234       0   32236   32237   32237       0   32239   32240
   32240       0   32242   32243   32243       0   32245   32246   32246       0
   32248   32249   32249       0   32251   32252   32252       0   32254   32255
   32255       0   32257   32258   32258       0   32260   32261   32261       0
   32263   32264   32264       0   32266   32267   32267       0   32269   32270
   32270       0   32272   32273   32273       0   32275   32276   32276       0
   32278   32279   32279       0   32281   32282   32282       0   32284   32285
   32285       0   32287   32288   32288       0   32290   32291   32291       0
   32293   32294   32294       0   32296   32297   32297       0   32299   32300
   32300       0   32302   32303   32303       0   32305   32306   32306       0
   32308   32309   32309       0   32311   32312   32312       0   32314   32315
   32315       0   32317   32318   32318       0   32320   32321   32321       0
   32323   32324   32324       0   32326   32327   32327       0   32329   32330
   32330       0   32332   32333   32333       0   32335   32336   32336       0
   32338   32339   32339       0   32341   32342   32342       0   32344   32345
   32345       0   32347   32348   32348       0   32350   32351   32351       0
   32353   32354   32354       0   32356   32357   32357       0   32359   32360
   32360       0   32362   32363   32363       0   32365   32366   32366       0
   32368   32369   32369       0   32371   32372   32372       0   32374   32375
   32375       0   32377   32378   32378       0   32380   32381   32381       0
   32383   32384   32384       0   32386   32387   32387       0   32389   32390
   32390       0   32392   32393   32393       0   32395   32396   32396       0
   32398   32399   32399       0   32401   32402   32402       0   32404   32405
   32405       0   32407   32408   32408       0   32410   32411   32411       0
   32413   32414   32414       0   32416   32417   32417       0   32419   32420
   32420       0   32422   32423   32423       0   32425   32426   32426       0
   32428   32429   32429       0   32431   32432   32432       0   32434   32435
   32435       0   32437   32438   32438       0   32440   32441   32441       0
   32443   32444   32444       0   32446   32447   32447       0   32449   32450
   32450       0   32452   32453   32453       0   32455   32456   32456       0
   32458   32459   32459       0   32461   32462   32462       0   32464   32465
   32465       0   32467   32468   32468       0   32470   32471   32471       0
   32473   32474   32474       0   32476   32477   32477       0   32479   32480
   32480       0   32482   32483   32483       0   32485   32486   32486       0
   32488   32489   32489       0   32491   32492   32492       0   32494   32495
   32495       0   32497   32498   32498       0   32500   32501   32501       0
   32503   32504   32504       0   32506   32507   32507       0   32509   32510
   32510       0   32512   32513   32513       0   32515   32516   32516       0
   32518   32519   32519       0   32521   32522   32522       0   32524   32525
   32525       0   32527   32528   32528       0   32530   32531   32531       0
   32533   32534   32534       0   32536   32537   32537       0   32539   32540
   32540       0   32542   32543   32543       0   32545   32546   32546       0
   32548   32549   32549       0   32551   32552   32552       0   32554   32555
   32555       0   32557   32558   32558       0   32560   32561   32561       0
   32563   32564   32564       0   32566   32567   32567       0   32569   32570
   32570       0   32572   32573   32573       0   32575   32576   32576       0
   32578   32579   32579       0   32581   32582   32582       0   32584   32585
   32585       0   32587   32588   32588       0   32590   32591   32591       0
   32593   32594   32594       0   32596   32597   32597       0   32599   32600
   32600       0   32602   32603   32603       0   32605   32606   32606       0
   32608   32609   32609       0   32611   32612   32612       0   32614   32615
   32615       0   32617   32618   32618       0   32620   32621   32621       0
   32623   32624   32624       0   32626   32627   32627       0   32629   32630
   32630       0   32632   32633   32633       0   32635   32636   32636       0
   32638   32639   32639       0   32641   32642   32642       0   32644   32645
   32645       0   32647   32648   32648       0   32650   32651   32651       0
   32653   32654   32654       0   32656   32657   32657       0   32659   32660
   32660       0   32662   32663   32663       0   32665   32666   32666       0
   32668   32669   32669       0   32671   32672   32672       0   32674   32675
   32675       0   32677   32678   32678       0   32680   32681   32681       0
   32683   32684   32684       0   32686   32687   32687       0   32689   32690
   32690       0   32692   32693   32693       0   32695   32696   32696       0
   32698   32699   32699       0   32701   32702   32702       0   32704   32705
   32705       0   32707   32708   32708       0   32710   32711   32711       0
   32713   32714   32714       0   32716   32717   32717       0   32719   32720
   32720       0   32722   32723   32723       0   32725   32726   32726       0
   32728   32729   32729       0   32731   32732   32732       0   32734   32735
   32735       0   32737   32738   32738       0   32740   32741   32741       0
   32743   32744   32744       0   32746   32747   32747       0   32749   32750
   32750       0   32752   32753   32753       0   32755   32756   32756       0
   32758   32759   32759       0   32761   32762   32762       0   32764   32765
   32765       0   32767   32768   32768       0   32770   32771   32771       0
   32773   32774   32774       0   32776   32777   32777       0   32779   32780
   32780       0   32782   32783   32783       0   32785   32786   32786       0
   32788   32789   32789       0   32791   32792   32792       0   32794   32795
   32795       0   32797   32798   32798       0   32800   32801   32801       0
   32803   32804   32804       0   32806   32807   32807       0   32809   32810
   32810       0   32812   32813   32813       0   32815   32816   32816       0
   32818   32819   32819       0   32821   32822   32822       0   32824   32825
   32825       0   32827   32828   32828       0   32830   32831   32831       0
   32833   32834   32834       0   32836   32837   32837       0   32839   32840
   32840       0   32842   32843   32843       0   32845   32846   32846       0
   32848   32849   32849       0   32851   32852   32852       0   32854   32855
   32855       0   32857   32858   32858       0   32860   32861   32861       0
   32863   32864   32864       0   32866   32867   32867       0   32869   32870
   32870       0   32872   32873   32873       0   32875   32876   32876       0
   32878   32879   32879       0   32881   32882   32882       0   32884   32885
   32885       0   32887   32888   32888       0   32890   32891   32891       0
   32893   32894   32894       0   32896   32897   32897       0   32899   32900
   32900       0   32902   32903   32903       0   32905   32906   32906       0
   32908   32909   32909       0   32911   32912   32912       0   32914   32915
   32915       0   32917   32918   32918       0   32920   32921   32921       0
   32923   32924   32924       0   32926   32927   32927       0   32929   32930
   32930       0   32932   32933   32933       0   32935   32936   32936       0
   32938   32939   32939       0   32941   32942   32942       0   32944   32945
   32945       0   32947   32948   32948       0   32950   32951   32951       0
   32953   32954   32954       0   32956   32957   32957       0   32959   32960
   32960       0   32962   32963   32963       0   32965   32966   32966       0
   32968   32969   32969       0   32971   32972   32972       0   32974   32975
   32975       0   32977   32978   32978       0   32980   32981   32981       0
   32983   32984   32984       0   32986   32987   32987       0   32989   32990
   32990       0   32992   32993   32993       0   32995   32996   32996       0
   32998   32999   32999       0   33001   33002   33002       0   33004   33005
   33005       0   33007   33008   33008       0   33010   33011   33011       0
   33013   33014   33014       0   33016   33017   33017       0   33019   33020
   33020       0   33022   33023   33023       0   33025   33026   33026       0
   33028   33029   33029       0   33031   33032   33032       0   33034   33035
   33035       0   33037   33038   33038       0   33040   33041   33041       0
   33043   33044   33044       0   33046   33047   33047       0   33049   33050
   33050       0   33052   33053   33053       0   33055   33056   33056       0
   33058   33059   33059       0   33061   33062   33062       0   33064   33065
   33065       0   33067   33068   33068       0   33070   33071   33071       0
   33073   33074   33074       0   33076   33077   33077       0   33079   33080
   33080       0   33082   33083   33083       0   33085   33086   33086       0
   33088   33089   33089       0   33091   33092   33092       0   33094   33095
   33095       0   33097   33098   33098       0   33100   33101   33101       0
   33103   33104   33104       0   33106   33107   33107       0   33109   33110
   33110       0   33112   33113   33113       0   33115   33116   33116       0
   33118   33119   33119       0   33121   33122   33122       0   33124   33125
   33125       0   33127   33128   33128       0   33130   33131   33131       0
   33133   33134   33134       0   33136   33137   33137       0   33139   33140
   33140       0   33142   33143   33143       0   33145   33146   33146       0
   33148   33149   33149       0   33151   33152   33152       0   33154   33155
   33155       0   33157   33158   33158       0   33160   33161   33161       0
   33163   33164   33164       0   33166   33167   33167       0   33169   33170
   33170       0   33172   33173   33173       0   33175   33176   33176       0
   33178   33179   33179       0   33181   33182   33182       0   33184   33185
   33185       0   33187   33188   33188       0   33190   33191   33191       0
   33193   33194   33194       0   33196   33197   33197       0   33199   33200
   33200       0   33202   33203   33203       0   33205   33206   33206       0
   33208   33209   33209       0   33211   33212   33212       0   33214   33215
   33215       0   33217   33218   33218       0   33220   33221   33221       0
   33223   33224   33224       0   33226   33227   33227       0   33229   33230
   33230       0   33232   33233   33233       0   33235   33236   33236       0
   33238   33239   33239       0   33241   33242   33242       0   33244   33245
   33245       0   33247   33248   33248       0   33250   33251   33251       0
   33253   33254   33254       0   33256   33257   33257       0   33259   33260
   33260       0   33262   33263   33263       0   33265   33266   33266       0
   33268   33269   33269       0   33271   33272   33272       0   33274   33275
   33275       0   33277   33278   33278       0   33280   33281   33281       0
   33283   33284   33284       0   33286   33287   33287       0   33289   33290
   33290       0   33292   33293   33293       0   33295   33296   33296       0
   33298   33299   33299       0   33301   33302   33302       0   33304   33305
   33305       0   33307   33308   33308       0   33310   33311   33311       0
   33313   33314   33314       0   33316   33317   33317       0   33319   33320
   33320       0   33322   33323   33323       0   33325   33326   33326       0
   33328   33329   33329       0   33331   33332   33332       0   33334   33335
   33335       0   33337   33338   33338       0   33340   33341   33341       0
   33343   33344   33344       0   33346   33347   33347       0   33349   33350
   33350       0   33352   33353   33353       0   33355   33356   33356       0
   33358   33359   33359       0   33361   33362   33362       0   33364   33365
   33365       0   33367   33368   33368       0   33370   33371   33371       0
   33373   33374   33374       0   33376   33377   33377       0   33379   33380
   33380       0   33382   33383   33383       0   33385   33386   33386       0
   33388   33389   33389       0   33391   33392   33392       0   33394   33395
   33395       0   33397   33398   33398       0   33400   33401   33401       0
   33403   33404   33404       0   33406   33407   33407       0   33409   33410
   33410       0   33412   33413   33413       0   33415   33416   33416       0
   33418   33419   33419       0   33421   33422   33422       0   33424   33425
   33425       0   33427   33428   33428       0   33430   33431   33431       0
   33433   33434   33434       0   33436   33437   33437       0   33439   33440
   33440       0   33442   33443   33443       0   33445   33446   33446       0
   33448   33449   33449       0   33451   33452   33452       0   33454   33455
   33455       0   33457   33458   33458       0   33460   33461   33461       0
   33463   33464   33464       0   33466   33467   33467       0   33469   33470
   33470       0   33472   33473   33473       0   33475   33476   33476       0
   33478   33479   33479       0   33481   33482   33482       0   33484   33485
   33485       0   33487   33488   33488       0   33490   33491   33491       0
   33493   33494   33494       0   33496   33497   33497       0   33499   33500
   33500       0   33502   33503   33503       0   33505   33506   33506       0
   33508   33509   33509       0   33511   33512   33512       0   33514   33515
   33515       0   33517   33518   33518       0   33520   33521   33521       0
   33523   33524   33524       0   33526   33527   33527       0   33529   33530
   33530       0   33532   33533   33533       0   33535   33536   33536       0
   33538   33539   33539       0   33541   33542   33542       0   33544   33545
   33545       0   33547   33548   33548       0   33550   33551   33551       0
   33553   33554   33554       0   33556   33557   33557       0   33559   33560
   33560       0   33562   33563   33563       0   33565   33566   33566       0
   33568   33569   33569       0   33571   33572   33572       0   33574   33575
   33575       0   33577   33578   33578       0   33580   33581   33581       0
   33583   33584   33584       0   33586   33587   33587       0   33589   33590
   33590       0   33592   33593   33593       0   33595   33596   33596       0
   33598   33599   33599       0   33601   33602   33602       0   33604   33605
   33605       0   33607   33608   33608       0   33610   33611   33611       0
   33613   33614   33614       0   33616   33617   33617       0   33619   33620
   33620       0   33622   33623   33623       0   33625   33626   33626       0
   33628   33629   33629       0   33631   33632   33632       0   33634   33635
   33635       0   33637   33638   33638       0   33640   33641   33641       0
   33643   33644   33644       0   33646   33647   33647       0   33649   33650
   33650       0   33652   33653   33653       0   33655   33656   33656       0
   33658   33659   33659       0   33661   33662   33662       0   33664   33665
   33665       0   33667   33668   33668       0   33670   33671   33671       0
   33673   33674   33674       0   33676   33677   33677       0   33679   33680
   33680       0   33682   33683   33683       0   33685   33686   33686       0
   33688   33689   33689       0   33691   33692   33692       0   33694   33695
   33695       0   33697   33698   33698       0   33700   33701   33701       0
   33703   33704   33704       0   33706   33707   33707       0   33709   33710
   33710       0   33712   33713   33713       0   33715   33716   33716       0
   33718   33719   33719       0   33721   33722   33722       0   33724   33725
   33725       0   33727   33728   33728       0   33730   33731   33731       0
   33733   33734   33734       0   33736   33737   33737       0   33739   33740
   33740       0   33742   33743   33743       0   33745   33746   33746       0
   33748   33749   33749       0   33751   33752   33752       0   33754   33755
   33755       0   33757   33758   33758       0   33760   33761   33761       0
   33763   33764   33764       0   33766   33767   33767       0   33769   33770
   33770       0   33772   33773   33773       0   33775   33776   33776       0
   33778   33779   33779       0   33781   33782   33782       0   33784   33785
   33785       0   33787   33788   33788       0   33790   33791   33791       0
   33793   33794   33794       0   33796   33797   33797       0   33799   33800
   33800       0   33802   33803   33803       0   33805   33806   33806       0
   33808   33809   33809       0   33811   33812   33812       0   33814   33815
   33815       0   33817   33818   33818       0   33820   33821   33821       0
   33823   33824   33824       0   33826   33827   33827       0   33829   33830
   33830       0   33832   33833   33833       0   33835   33836   33836       0
   33838   33839   33839       0   33841   33842   33842       0   33844   33845
   33845       0   33847   33848   33848       0   33850   33851   33851       0
   33853   33854   33854       0   33856   33857   33857       0   33859   33860
   33860       0   33862   33863   33863       0   33865   33866   33866       0
   33868   33869   33869       0   33871   33872   33872       0   33874   33875
   33875       0   33877   33878   33878       0   33880   33881   33881       0
   33883   33884   33884       0   33886   33887   33887       0   33889   33890
   33890       0   33892   33893   33893       0   33895   33896   33896       0
   33898   33899   33899       0   33901   33902   33902       0   33904   33905
   33905       0   33907   33908   33908       0   33910   33911   33911       0
   33913   33914   33914       0   33916   33917   33917       0   33919   33920
   33920       0   33922   33923   33923       0   33925   33926   33926       0
   33928   33929   33929       0   33931   33932   33932       0   33934   33935
   33935       0   33937   33938   33938       0   33940   33941   33941       0
   33943   33944   33944       0   33946   33947   33947       0   33949   33950
   33950       0   33952   33953   33953       0   33955   33956   33956       0
   33958   33959   33959       0   33961   33962   33962       0   33964   33965
   33965       0   33967   33968   33968       0   33970   33971   33971       0
   33973   33974   33974       0   33976   33977   33977       0   33979   33980
   33980       0   33982   33983   33983       0   33985   33986   33986       0
   33988   33989   33989       0   33991   33992   33992       0   33994   33995
   33995       0   33997   33998   33998       0   34000   34001   34001       0
   34003   34004   34004       0   34006   34007   34007       0   34009   34010
   34010       0   34012   34013   34013       0   34015   34016   34016       0
   34018   34019   34019       0   34021   34022   34022       0   34024   34025
   34025       0   34027   34028   34028       0   34030   34031   34031       0
   34033   34034   34034       0   34036   34037   34037       0   34039   34040
   34040       0   34042   34043   34043       0   34045   34046   34046       0
   34048   34049   34049       0   34051   34052   34052       0   34054   34055
   34055       0   34057   34058   34058       0   34060   34061   34061       0
   34063   34064   34064       0   34066   34067   34067       0   34069   34070
   34070       0   34072   34073   34073       0   34075   34076   34076       0
   34078   34079   34079       0   34081   34082   34082       0   34084   34085
   34085       0   34087   34088   34088       0   34090   34091   34091       0
   34093   34094   34094       0   34096   34097   34097       0   34099   34100
   34100       0   34102   34103   34103       0   34105   34106   34106       0
   34108   34109   34109       0   34111   34112   34112       0   34114   34115
   34115       0   34117   34118   34118       0   34120   34121   34121       0
   34123   34124   34124       0   34126   34127   34127       0   34129   34130
   34130       0   34132   34133   34133       0   34135   34136   34136       0
   34138   34139   34139       0   34141   34142   34142       0   34144   34145
   34145       0   34147   34148   34148       0   34150   34151   34151       0
   34153   34154   34154       0   34156   34157   34157       0   34159   34160
   34160       0   34162   34163   34163       0   34165   34166   34166       0
   34168   34169   34169       0   34171   34172   34172       0   34174   34175
   34175       0   34177   34178   34178       0   34180   34181   34181       0
   34183   34184   34184       0   34186   34187   34187       0   34189   34190
   34190       0   34192   34193   34193       0   34195   34196   34196       0
   34198   34199   34199       0   34201   34202   34202       0   34204   34205
   34205       0   34207   34208   34208       0   34210   34211   34211       0
   34213   34214   34214       0   34216   34217   34217       0   34219   34220
   34220       0   34222   34223   34223       0   34225   34226   34226       0
   34228   34229   34229       0   34231   34232   34232       0   34234   34235
   34235       0   34237   34238   34238       0   34240   34241   34241       0
   34243   34244   34244       0   34246   34247   34247       0   34249   34250
   34250       0   34252   34253   34253       0   34255   34256   34256       0
   34258   34259   34259       0   34261   34262   34262       0   34264   34265
   34265       0   34267   34268   34268       0   34270   34271   34271       0
   34273   34274   34274       0   34276   34277   34277       0   34279   34280
   34280       0   34282   34283   34283       0   34285   34286   34286       0
   34288   34289   34289       0   34291   34292   34292       0   34294   34295
   34295       0   34297   34298   34298       0   34300   34301   34301       0
   34303   34304   34304       0   34306   34307   34307       0   34309   34310
   34310       0   34312   34313   34313       0   34315   34316   34316       0
   34318   34319   34319       0   34321   34322   34322       0   34324   34325
   34325       0   34327   34328   34328       0   34330   34331   34331       0
   34333   34334   34334       0   34336   34337   34337       0   34339   34340
   34340       0   34342   34343   34343       0   34345   34346   34346       0
   34348   34349   34349       0   34351   34352   34352       0   34354   34355
   34355       0   34357   34358   34358       0   34360   34361   34361       0
   34363   34364   34364       0   34366   34367   34367       0   34369   34370
   34370       0   34372   34373   34373       0   34375   34376   34376       0
   34378   34379   34379       0   34381   34382   34382       0   34384   34385
   34385       0   34387   34388   34388       0   34390   34391   34391       0
   34393   34394   34394       0   34396   34397   34397       0   34399   34400
   34400       0   34402   34403   34403       0   34405   34406   34406       0
   34408   34409   34409       0   34411   34412   34412       0   34414   34415
   34415       0   34417   34418   34418       0   34420   34421   34421       0
   34423   34424   34424       0   34426   34427   34427       0   34429   34430
   34430       0   34432   34433   34433       0   34435   34436   34436       0
   34438   34439   34439       0   34441   34442   34442       0   34444   34445
   34445       0   34447   34448   34448       0   34450   34451   34451       0
   34453   34454   34454       0   34456   34457   34457       0   34459   34460
   34460       0   34462   34463   34463       0   34465   34466   34466       0
   34468   34469   34469       0   34471   34472   34472       0   34474   34475
   34475       0   34477   34478   34478       0   34480   34481   34481       0
   34483   34484   34484       0   34486   34487   34487       0   34489   34490
   34490       0   34492   34493   34493       0   34495   34496   34496       0
   34498   34499   34499       0   34501   34502   34502       0   34504   34505
   34505       0   34507   34508   34508       0   34510   34511   34511       0
   34513   34514   34514       0   34516   34517   34517       0   34519   34520
   34520       0   34522   34523   34523       0   34525   34526   34526       0
   34528   34529   34529       0   34531   34532   34532       0   34534   34535
   34535       0   34537   34538   34538       0   34540   34541   34541       0
   34543   34544   34544       0   34546   34547   34547       0   34549   34550
   34550       0   34552   34553   34553       0   34555   34556   34556       0
   34558   34559   34559       0   34561   34562   34562       0   34564   34565
   34565       0   34567   34568   34568       0   34570   34571   34571       0
   34573   34574   34574       0   34576   34577   34577       0   34579   34580
   34580       0   34582   34583   34583       0   34585   34586   34586       0
   34588   34589   34589       0   34591   34592   34592       0   34594   34595
   34595       0   34597   34598   34598       0   34600   34601   34601       0
   34603   34604   34604       0   34606   34607   34607       0   34609   34610
   34610       0   34612   34613   34613       0   34615   34616   34616       0
   34618   34619   34619       0   34621   34622   34622       0   34624   34625
   34625       0   34627   34628   34628       0   34630   34631   34631       0
   34633   34634   34634       0   34636   34637   34637       0   34639   34640
   34640       0   34642   34643   34643       0   34645   34646   34646       0
   34648   34649   34649       0   34651   34652   34652       0   34654   34655
   34655       0   34657   34658   34658       0   34660   34661   34661       0
   34663   34664   34664       0   34666   34667   34667       0   34669   34670
   34670       0   34672   34673   34673       0   34675   34676   34676       0
   34678   34679   34679       0   34681   34682   34682       0   34684   34685
   34685       0   34687   34688   34688       0   34690   34691   34691       0
   34693   34694   34694       0   34696   34697   34697       0   34699   34700
   34700       0   34702   34703   34703       0   34705   34706   34706       0
   34708   34709   34709       0   34711   34712   34712       0   34714   34715
   34715       0   34717   34718   34718       0   34720   34721   34721       0
   34723   34724   34724       0   34726   34727   34727       0   34729   34730
   34730       0   34732   34733   34733       0   34735   34736   34736       0
   34738   34739   34739       0   34741   34742   34742       0   34744   34745
   34745       0   34747   34748   34748       0   34750   34751   34751       0
   34753   34754   34754       0   34756   34757   34757       0   34759   34760
   34760       0   34762   34763   34763       0   34765   34766   34766       0
   34768   34769   34769       0   34771   34772   34772       0   34774   34775
   34775       0   34777   34778   34778       0   34780   34781   34781       0
   34783   34784   34784       0   34786   34787   34787       0   34789   34790
   34790       0   34792   34793   34793       0   34795   34796   34796       0
   34798   34799   34799       0   34801   34802   34802       0   34804   34805
   34805       0   34807   34808   34808       0   34810   34811   34811       0
   34813   34814   34814       0   34816   34817   34817       0   34819   34820
   34820       0   34822   34823   34823       0   34825   34826   34826       0
   34828   34829   34829       0   34831   34832   34832       0   34834   34835
   34835       0   34837   34838   34838       0   34840   34841   34841       0
   34843   34844   34844       0   34846   34847   34847       0   34849   34850
   34850       0   34852   34853   34853       0   34855   34856   34856       0
   34858   34859   34859       0   34861   34862   34862       0   34864   34865
   34865       0   34867   34868   34868       0   34870   34871   34871       0
   34873   34874   34874       0   34876   34877   34877       0   34879   34880
   34880       0   34882   34883   34883       0   34885   34886   34886       0
   34888   34889   34889       0   34891   34892   34892       0   34894   34895
   34895       0   34897   34898   34898       0   34900   34901   34901       0
   34903   34904   34904       0   34906   34907   34907       0   34909   34910
   34910       0   34912   34913   34913       0   34915   34916   34916       0
   34918   34919   34919       0   34921   34922   34922       0   34924   34925
   34925       0   34927   34928   34928       0   34930   34931   34931       0
   34933   34934   34934       0   34936   34937   34937       0   34939   34940
   34940       0   34942   34943   34943       0   34945   34946   34946       0
   34948   34949   34949       0   34951   34952   34952       0   34954   34955
   34955       0   34957   34958   34958       0   34960   34961   34961       0
   34963   34964   34964       0   34966   34967   34967       0   34969   34970
   34970       0   34972   34973   34973       0   34975   34976   34976       0
   34978   34979   34979       0   34981   34982   34982       0   34984   34985
   34985       0   34987   34988   34988       0   34990   34991   34991       0
   34993   34994   34994       0   34996   34997   34997       0   34999   35000
   35000       0   35002   35003   35003       0   35005   35006   35006       0
   35008   35009   35009       0   35011   35012   35012       0   35014   35015
   35015       0   35017   35018   35018       0   35020   35021   35021       0
   35023   35024   35024       0   35026   35027   35027       0   35029   35030
   35030       0   35032   35033   35033       0   35035   35036   35036       0
   35038   35039   35039       0   35041   35042   35042       0   35044   35045
   35045       0   35047   35048   35048       0   35050   35051   35051       0
   35053   35054   35054       0   35056   35057   35057       0   35059   35060
   35060       0   35062   35063   35063       0   35065   35066   35066       0
   35068   35069   35069       0   35071   35072   35072       0   35074   35075
   35075       0   35077   35078   35078       0   35080   35081   35081       0
   35083   35084   35084       0   35086   35087   35087       0   35089   35090
   35090       0   35092   35093   35093       0   35095   35096   35096       0
   35098   35099   35099       0   35101   35102   35102       0   35104   35105
   35105       0   35107   35108   35108       0   35110   35111   35111       0
   35113   35114   35114       0   35116   35117   35117       0   35119   35120
   35120       0   35122   35123   35123       0   35125   35126   35126       0
   35128   35129   35129       0   35131   35132   35132       0   35134   35135
   35135       0   35137   35138   35138       0   35140   35141   35141       0
   35143   35144   35144       0   35146   35147   35147       0   35149   35150
   35150       0   35152   35153   35153       0   35155   35156   35156       0
   35158   35159   35159       0   35161   35162   35162       0   35164   35165
   35165       0   35167   35168   35168       0   35170   35171   35171       0
   35173   35174   35174       0   35176   35177   35177       0   35179   35180
   35180       0   35182   35183   35183       0   35185   35186   35186       0
   35188   35189   35189       0   35191   35192   35192       0   35194   35195
   35195       0   35197   35198   35198       0   35200   35201   35201       0
   35203   35204   35204       0   35206   35207   35207       0   35209   35210
   35210       0   35212   35213   35213       0   35215   35216   35216       0
   35218   35219   35219       0   35221   35222   35222       0   35224   35225
   35225       0   35227   35228   35228       0   35230   35231   35231       0
   35233   35234   35234       0   35236   35237   35237       0   35239   35240
   35240       0   35242   35243   35243       0   35245   35246   35246       0
   35248   35249   35249       0   35251   35252   35252       0   35254   35255
   35255       0   35257   35258   35258       0   35260   35261   35261       0
   35263   35264   35264       0   35266   35267   35267       0   35269   35270
   35270       0   35272   35273   35273       0   35275   35276   35276       0
   35278   35279   35279       0   35281   35282   35282       0   35284   35285
   35285       0   35287   35288   35288       0   35290   35291   35291       0
   35293   35294   35294       0   35296   35297   35297       0   35299   35300
   35300       0   35302   35303   35303       0   35305   35306   35306       0
   35308   35309   35309       0   35311   35312   35312       0   35314   35315
   35315       0   35317   35318   35318       0   35320   35321   35321       0
   35323   35324   35324       0   35326   35327   35327       0   35329   35330
   35330       0   35332   35333   35333       0   35335   35336   35336       0
   35338   35339   35339       0   35341   35342   35342       0   35344   35345
   35345       0   35347   35348   35348       0   35350   35351   35351       0
   35353   35354   35354       0   35356   35357   35357       0   35359   35360
   35360       0   35362   35363   35363       0   35365   35366   35366       0
   35368   35369   35369       0   35371   35372   35372       0   35374   35375
   35375       0   35377   35378   35378       0   35380   35381   35381       0
   35383   35384   35384       0   35386   35387   35387       0   35389   35390
   35390       0   35392   35393   35393       0   35395   35396   35396       0
   35398   35399   35399       0   35401   35402   35402       0   35404   35405
   35405       0   35407   35408   35408       0   35410   35411   35411       0
   35413   35414   35414       0   35416   35417   35417       0   35419   35420
   35420       0   35422   35423   35423       0   35425   35426   35426       0
   35428   35429   35429       0   35431   35432   35432       0   35434   35435
   35435       0   35437   35438   35438       0   35440   35441   35441       0
   35443   35444   35444       0   35446   35447   35447       0   35449   35450
   35450       0   35452   35453   35453       0   35455   35456   35456       0
   35458   35459   35459       0   35461   35462   35462       0   35464   35465
   35465       0   35467   35468   35468       0   35470   35471   35471       0
   35473   35474   35474       0   35476   35477   35477       0   35479   35480
   35480       0   35482   35483   35483       0   35485   35486   35486       0
   35488   35489   35489       0   35491   35492   35492       0   35494   35495
   35495       0   35497   35498   35498       0   35500   35501   35501       0
   35503   35504   35504       0   35506   35507   35507       0   35509   35510
   35510       0   35512   35513   35513       0   35515   35516   35516       0
   35518   35519   35519       0   35521   35522   35522       0   35524   35525
   35525       0   35527   35528   35528       0   35530   35531   35531       0
   35533   35534   35534       0   35536   35537   35537       0   35539   35540
   35540       0   35542   35543   35543       0   35545   35546   35546       0
   35548   35549   35549       0   35551   35552   35552       0   35554   35555
   35555       0   35557   35558   35558       0   35560   35561   35561       0
   35563   35564   35564       0   35566   35567   35567       0   35569   35570
   35570       0   35572   35573   35573       0   35575   35576   35576       0
   35578   35579   35579       0   35581   35582   35582       0   35584   35585
   35585       0   35587   35588   35588       0   35590   35591   35591       0
   35593   35594   35594       0   35596   35597   35597       0   35599   35600
   35600       0   35602   35603   35603       0   35605   35606   35606       0
   35608   35609   35609       0   35611   35612   35612       0   35614   35615
   35615       0   35617   35618   35618       0   35620   35621   35621       0
   35623   35624   35624       0   35626   35627   35627       0   35629   35630
   35630       0   35632   35633   35633       0   35635   35636   35636       0
   35638   35639   35639       0   35641   35642   35642       0   35644   35645
   35645       0   35647   35648   35648       0   35650   35651   35651       0
   35653   35654   35654       0   35656   35657   35657       0   35659   35660
   35660       0   35662   35663   35663       0   35665   35666   35666       0
   35668   35669   35669       0   35671   35672   35672       0   35674   35675
   35675       0   35677   35678   35678       0   35680   35681   35681       0
   35683   35684   35684       0   35686   35687   35687       0   35689   35690
   35690       0   35692   35693   35693       0   35695   35696   35696       0
   35698   35699   35699       0   35701   35702   35702       0   35704   35705
   35705       0   35707   35708   35708       0   35710   35711   35711       0
   35713   35714   35714       0   35716   35717   35717       0   35719   35720
   35720       0   35722   35723   35723       0   35725   35726   35726       0
   35728   35729   35729       0   35731   35732   35732       0   35734   35735
   35735       0   35737   35738   35738       0   35740   35741   35741       0
   35743   35744   35744       0   35746   35747   35747       0   35749   35750
   35750       0   35752   35753   35753       0   35755   35756   35756       0
   35758   35759   35759       0   35761   35762   35762       0   35764   35765
   35765       0   35767   35768   35768       0   35770   35771   35771       0
   35773   35774   35774       0   35776   35777   35777       0   35779   35780
   35780       0   35782   35783   35783       0   35785   35786   35786       0
   35788   35789   35789       0   35791   35792   35792       0   35794   35795
   35795       0   35797   35798   35798       0   35800   35801   35801       0
   35803   35804   35804       0   35806   35807   35807       0   35809   35810
   35810       0   35812   35813   35813       0   35815   35816   35816       0
   35818   35819   35819       0   35821   35822   35822       0   35824   35825
   35825       0   35827   35828   35828       0   35830   35831   35831       0
   35833   35834   35834       0   35836   35837   35837       0   35839   35840
   35840       0   35842   35843   35843       0   35845   35846   35846       0
   35848   35849   35849       0   35851   35852   35852       0   35854   35855
   35855       0   35857   35858   35858       0   35860   35861   35861       0
   35863   35864   35864       0   35866   35867   35867       0   35869   35870
   35870       0   35872   35873   35873       0   35875   35876   35876       0
   35878   35879   35879       0   35881   35882   35882       0   35884   35885
   35885       0   35887   35888   35888       0   35890   35891   35891       0
   35893   35894   35894       0   35896   35897   35897       0   35899   35900
   35900       0   35902   35903   35903       0   35905   35906   35906       0
   35908   35909   35909       0   35911   35912   35912       0   35914   35915
   35915       0   35917   35918   35918       0   35920   35921   35921       0
   35923   35924   35924       0   35926   35927   35927       0   35929   35930
   35930       0   35932   35933   35933       0   35935   35936   35936       0
   35938   35939   35939       0   35941   35942   35942       0   35944   35945
   35945       0   35947   35948   35948       0   35950   35951   35951       0
   35953   35954   35954       0   35956   35957   35957       0   35959   35960
   35960       0   35962   35963   35963       0   35965   35966   35966       0
   35968   35969   35969       0   35971   35972   35972       0   35974   35975
   35975       0   35977   35978   35978       0   35980   35981   35981       0
   35983   35984   35984       0   35986   35987   35987       0   35989   35990
   35990       0   35992   35993   35993       0   35995   35996   35996       0
   35998   35999   35999       0   36001   36002   36002       0   36004   36005
   36005       0   36007   36008   36008       0   36010   36011   36011       0
   36013   36014   36014       0   36016   36017   36017       0   36019   36020
   36020       0   36022   36023   36023       0   36025   36026   36026       0
   36028   36029   36029       0   36031   36032   36032       0   36034   36035
   36035       0   36037   36038   36038       0   36040   36041   36041       0
   36043   36044   36044       0   36046   36047   36047       0   36049   36050
   36050       0   36052   36053   36053       0   36055   36056   36056       0
   36058   36059   36059       0   36061   36062   36062       0   36064   36065
   36065       0   36067   36068   36068       0   36070   36071   36071       0
   36073   36074   36074       0   36076   36077   36077       0   36079   36080
   36080       0   36082   36083   36083       0   36085   36086   36086       0
   36088   36089   36089       0   36091   36092   36092       0   36094   36095
   36095       0   36097   36098   36098       0   36100   36101   36101       0
   36103   36104   36104       0   36106   36107   36107       0   36109   36110
   36110       0   36112   36113   36113       0   36115   36116   36116       0
   36118   36119   36119       0   36121   36122   36122       0   36124   36125
   36125       0   36127   36128   36128       0   36130   36131   36131       0
   36133   36134   36134       0   36136   36137   36137       0   36139   36140
   36140       0   36142   36143   36143       0   36145   36146   36146       0
   36148   36149   36149       0   36151   36152   36152       0   36154   36155
   36155       0   36157   36158   36158       0   36160   36161   36161       0
   36163   36164   36164       0   36166   36167   36167       0   36169   36170
   36170       0   36172   36173   36173       0   36175   36176   36176       0
   36178   36179   36179       0   36181   36182   36182       0   36184   36185
   36185       0   36187   36188   36188       0   36190   36191   36191       0
   36193   36194   36194       0   36196   36197   36197       0   36199   36200
   36200       0   36202   36203   36203       0   36205   36206   36206       0
   36208   36209   36209       0   36211   36212   36212       0   36214   36215
   36215       0   36217   36218   36218       0   36220   36221   36221       0
   36223   36224   36224       0   36226   36227   36227       0   36229   36230
   36230       0   36232   36233   36233       0   36235   36236   36236       0
   36238   36239   36239       0   36241   36242   36242       0   36244   36245
   36245       0   36247   36248   36248       0   36250   36251   36251       0
   36253   36254   36254       0   36256   36257   36257       0   36259   36260
   36260       0   36262   36263   36263       0   36265   36266   36266       0
   36268   36269   36269       0   36271   36272   36272       0   36274   36275
   36275       0   36277   36278   36278       0   36280   36281   36281       0
   36283   36284   36284       0   36286   36287   36287       0   36289   36290
   36290       0   36292   36293   36293       0   36295   36296   36296       0
   36298   36299   36299       0   36301   36302   36302       0   36304   36305
   36305       0   36307   36308   36308       0   36310   36311   36311       0
   36313   36314   36314       0   36316   36317   36317       0   36319   36320
   36320       0   36322   36323   36323       0   36325   36326   36326       0
   36328   36329   36329       0   36331   36332   36332       0   36334   36335
   36335       0   36337   36338   36338       0   36340   36341   36341       0
   36343   36344   36344       0   36346   36347   36347       0   36349   36350
   36350       0   36352   36353   36353       0   36355   36356   36356       0
   36358   36359   36359       0   36361   36362   36362       0   36364   36365
   36365       0   36367   36368   36368       0   36370   36371   36371       0
   36373   36374   36374       0   36376   36377   36377       0   36379   36380
   36380       0   36382   36383   36383       0   36385   36386   36386       0
   36388   36389   36389       0   36391   36392   36392       0   36394   36395
   36395       0   36397   36398   36398       0   36400   36401   36401       0
   36403   36404   36404       0   36406   36407   36407       0   36409   36410
   36410       0   36412   36413   36413       0   36415   36416   36416       0
   36418   36419   36419       0   36421   36422   36422       0   36424   36425
   36425       0   36427   36428   36428       0   36430   36431   36431       0
   36433   36434   36434       0   36436   36437   36437       0   36439   36440
   36440       0   36442   36443   36443       0   36445   36446   36446       0
   36448   36449   36449       0   36451   36452   36452       0   36454   36455
   36455       0   36457   36458   36458       0   36460   36461   36461       0
   36463   36464   36464       0   36466   36467   36467       0   36469   36470
   36470       0   36472   36473   36473       0   36475   36476   36476       0
   36478   36479   36479       0   36481   36482   36482       0   36484   36485
   36485       0   36487   36488   36488       0   36490   36491   36491       0
   36493   36494   36494       0   36496   36497   36497       0   36499   36500
   36500       0   36502   36503   36503       0   36505   36506   36506       0
   36508   36509   36509       0   36511   36512   36512       0   36514   36515
   36515       0   36517   36518   36518       0   36520   36521   36521       0
   36523   36524   36524       0   36526   36527   36527       0   36529   36530
   36530       0   36532   36533   36533       0   36535   36536   36536       0
   36538   36539   36539       0   36541   36542   36542       0   36544   36545
   36545       0   36547   36548   36548       0   36550   36551   36551       0
   36553   36554   36554       0   36556   36557   36557       0   36559   36560
   36560       0   36562   36563   36563       0   36565   36566   36566       0
   36568   36569   36569       0   36571   36572   36572       0   36574   36575
   36575       0   36577   36578   36578       0   36580   36581   36581       0
   36583   36584   36584       0   36586   36587   36587       0   36589   36590
   36590       0   36592   36593   36593       0   36595   36596   36596       0
   36598   36599   36599       0   36601   36602   36602       0   36604   36605
   36605       0   36607   36608   36608       0   36610   36611   36611       0
   36613   36614   36614       0   36616   36617   36617       0   36619   36620
   36620       0   36622   36623   36623       0   36625   36626   36626       0
   36628   36629   36629       0   36631   36632   36632       0   36634   36635
   36635       0   36637   36638   36638       0   36640   36641   36641       0
   36643   36644   36644       0   36646   36647   36647       0   36649   36650
   36650       0   36652   36653   36653       0   36655   36656   36656       0
   36658   36659   36659       0   36661   36662   36662       0   36664   36665
   36665       0   36667   36668   36668       0   36670   36671   36671       0
   36673   36674   36674       0   36676   36677   36677       0   36679   36680
   36680       0   36682   36683   36683       0   36685   36686   36686       0
   36688   36689   36689       0   36691   36692   36692       0   36694   36695
   36695       0   36697   36698   36698       0   36700   36701   36701       0
   36703   36704   36704       0   36706   36707   36707       0   36709   36710
   36710       0   36712   36713   36713       0   36715   36716   36716       0
   36718   36719   36719       0   36721   36722   36722       0   36724   36725
   36725       0   36727   36728   36728       0   36730   36731   36731       0
   36733   36734   36734       0   36736   36737   36737       0   36739   36740
   36740       0   36742   36743   36743       0   36745   36746   36746       0
   36748   36749   36749       0   36751   36752   36752       0   36754   36755
   36755       0   36757   36758   36758       0   36760   36761   36761       0
   36763   36764   36764       0   36766   36767   36767       0   36769   36770
   36770       0   36772   36773   36773       0   36775   36776   36776       0
   36778   36779   36779       0   36781   36782   36782       0   36784   36785
   36785       0   36787   36788   36788       0   36790   36791   36791       0
   36793   36794   36794       0   36796   36797   36797       0   36799   36800
   36800       0   36802   36803   36803       0   36805   36806   36806       0
   36808   36809   36809       0   36811   36812   36812       0   36814   36815
   36815       0   36817   36818   36818       0   36820   36821   36821       0
   36823   36824   36824       0   36826   36827   36827       0   36829   36830
   36830       0   36832   36833   36833       0   36835   36836   36836       0
   36838   36839   36839       0   36841   36842   36842       0   36844   36845
   36845       0   36847   36848   36848       0   36850   36851   36851       0
   36853   36854   36854       0   36856   36857   36857       0   36859   36860
   36860       0   36862   36863   36863       0   36865   36866   36866       0
   36868   36869   36869       0   36871   36872   36872       0   36874   36875
   36875       0   36877   36878   36878       0   36880   36881   36881       0
   36883   36884   36884       0   36886   36887   36887       0   36889   36890
   36890       0   36892   36893   36893       0   36895   36896   36896       0
   36898   36899   36899       0   36901   36902   36902       0   36904   36905
   36905       0   36907   36908   36908       0   36910   36911   36911       0
   36913   36914   36914       0   36916   36917   36917       0   36919   36920
   36920       0   36922   36923   36923       0   36925   36926   36926       0
   36928   36929   36929       0   36931   36932   36932       0   36934   36935
   36935       0   36937   36938   36938       0   36940   36941   36941       0
   36943   36944   36944       0   36946   36947   36947       0   36949   36950
   36950       0   36952   36953   36953       0   36955   36956   36956       0
   36958   36959   36959       0   36961   36962   36962       0   36964   36965
   36965       0   36967   36968   36968       0   36970   36971   36971       0
   36973   36974   36974       0   36976   36977   36977       0   36979   36980
   36980       0   36982   36983   36983       0   36985   36986   36986       0
   36988   36989   36989       0   36991   36992   36992       0   36994   36995
   36995       0   36997   36998   36998       0   37000   37001   37001       0
   37003   37004   37004       0   37006   37007   37007       0   37009   37010
   37010       0   37012   37013   37013       0   37015   37016   37016       0
   37018   37019   37019       0   37021   37022   37022       0   37024   37025
   37025       0   37027   37028   37028       0   37030   37031   37031       0
   37033   37034   37034       0   37036   37037   37037       0   37039   37040
   37040       0   37042   37043   37043       0   37045   37046   37046       0
   37048   37049   37049       0   37051   37052   37052       0   37054   37055
   37055       0   37057   37058   37058       0   37060   37061   37061       0
   37063   37064   37064       0   37066   37067   37067       0   37069   37070
   37070       0   37072   37073   37073       0   37075   37076   37076       0
   37078   37079   37079       0   37081   37082   37082       0   37084   37085
   37085       0   37087   37088   37088       0   37090   37091   37091       0
   37093   37094   37094       0   37096   37097   37097       0   37099   37100
   37100       0   37102   37103   37103       0   37105   37106   37106       0
   37108   37109   37109       0   37111   37112   37112       0   37114   37115
   37115       0   37117   37118   37118       0   37120   37121   37121       0
   37123   37124   37124       0   37126   37127   37127       0   37129   37130
   37130       0   37132   37133   37133       0   37135   37136   37136       0
   37138   37139   37139       0   37141   37142   37142       0   37144   37145
   37145       0   37147   37148   37148       0   37150   37151   37151       0
   37153   37154   37154       0   37156   37157   37157       0   37159   37160
   37160       0   37162   37163   37163       0   37165   37166   37166       0
   37168   37169   37169       0   37171   37172   37172       0   37174   37175
   37175       0   37177   37178   37178       0   37180   37181   37181       0
   37183   37184   37184       0   37186   37187   37187       0   37189   37190
   37190       0   37192   37193   37193       0   37195   37196   37196       0
   37198   37199   37199       0   37201   37202   37202       0   37204   37205
   37205       0   37207   37208   37208       0   37210   37211   37211       0
   37213   37214   37214       0   37216   37217   37217       0   37219   37220
   37220       0   37222   37223   37223       0   37225   37226   37226       0
   37228   37229   37229       0   37231   37232   37232       0   37234   37235
   37235       0   37237   37238   37238       0   37240   37241   37241       0
   37243   37244   37244       0   37246   37247   37247       0   37249   37250
   37250       0   37252   37253   37253       0   37255   37256   37256       0
   37258   37259   37259       0   37261   37262   37262       0   37264   37265
   37265       0   37267   37268   37268       0   37270   37271   37271       0
   37273   37274   37274       0   37276   37277   37277       0   37279   37280
   37280       0   37282   37283   37283       0   37285   37286   37286       0
   37288   37289   37289       0   37291   37292   37292       0   37294   37295
   37295       0   37297   37298   37298       0   37300   37301   37301       0
   37303   37304   37304       0   37306   37307   37307       0   37309   37310
   37310       0   37312   37313   37313       0   37315   37316   37316       0
   37318   37319   37319       0   37321   37322   37322       0   37324   37325
   37325       0   37327   37328   37328       0   37330   37331   37331       0
   37333   37334   37334       0   37336   37337   37337       0   37339   37340
   37340       0   37342   37343   37343       0   37345   37346   37346       0
   37348   37349   37349       0   37351   37352   37352       0   37354   37355
   37355       0   37357   37358   37358       0   37360   37361   37361       0
   37363   37364   37364       0   37366   37367   37367       0   37369   37370
   37370       0   37372   37373   37373       0   37375   37376   37376       0
   37378   37379   37379       0   37381   37382   37382       0   37384   37385
   37385       0   37387   37388   37388       0   37390   37391   37391       0
   37393   37394   37394       0   37396   37397   37397       0   37399   37400
   37400       0   37402   37403   37403       0   37405   37406   37406       0
   37408   37409   37409       0   37411   37412   37412       0   37414   37415
   37415       0   37417   37418   37418       0   37420   37421   37421       0
   37423   37424   37424       0   37426   37427   37427       0   37429   37430
   37430       0   37432   37433   37433       0   37435   37436   37436       0
   37438   37439   37439       0   37441   37442   37442       0   37444   37445
   37445       0   37447   37448   37448       0   37450   37451   37451       0
   37453   37454   37454       0   37456   37457   37457       0   37459   37460
   37460       0   37462   37463   37463       0   37465   37466   37466       0
   37468   37469   37469       0   37471   37472   37472       0   37474   37475
   37475       0   37477   37478   37478       0   37480   37481   37481       0
   37483   37484   37484       0   37486   37487   37487       0   37489   37490
   37490       0   37492   37493   37493       0   37495   37496   37496       0
   37498   37499   37499       0   37501   37502   37502       0   37504   37505
   37505       0   37507   37508   37508       0   37510   37511   37511       0
   37513   37514   37514       0   37516   37517   37517       0   37519   37520
   37520       0   37522   37523   37523       0   37525   37526   37526       0
   37528   37529   37529       0   37531   37532   37532       0   37534   37535
   37535       0   37537   37538   37538       0   37540   37541   37541       0
   37543   37544   37544       0   37546   37547   37547       0   37549   37550
   37550       0   37552   37553   37553       0   37555   37556   37556       0
   37558   37559   37559       0   37561   37562   37562       0   37564   37565
   37565       0   37567   37568   37568       0   37570   37571   37571       0
   37573   37574   37574       0   37576   37577   37577       0   37579   37580
   37580       0   37582   37583   37583       0   37585   37586   37586       0
   37588   37589   37589       0   37591   37592   37592       0   37594   37595
   37595       0   37597   37598   37598       0   37600   37601   37601       0
   37603   37604   37604       0   37606   37607   37607       0   37609   37610
   37610       0   37612   37613   37613       0   37615   37616   37616       0
   37618   37619   37619       0   37621   37622   37622       0   37624   37625
   37625       0   37627   37628   37628       0   37630   37631   37631       0
   37633   37634   37634       0   37636   37637   37637       0   37639   37640
   37640       0   37642   37643   37643       0   37645   37646   37646       0
   37648   37649   37649       0   37651   37652   37652       0   37654   37655
   37655       0   37657   37658   37658       0   37660   37661   37661       0
   37663   37664   37664       0   37666   37667   37667       0   37669   37670
   37670       0   37672   37673   37673       0   37675   37676   37676       0
   37678   37679   37679       0   37681   37682   37682       0   37684   37685
   37685       0   37687   37688   37688       0   37690   37691   37691       0
   37693   37694   37694       0   37696   37697   37697       0   37699   37700
   37700       0   37702   37703   37703       0   37705   37706   37706       0
   37708   37709   37709       0   37711   37712   37712       0   37714   37715
   37715       0   37717   37718   37718       0   37720   37721   37721       0
   37723   37724   37724       0   37726   37727   37727       0   37729   37730
   37730       0   37732   37733   37733       0   37735   37736   37736       0
   37738   37739   37739       0   37741   37742   37742       0   37744   37745
   37745       0   37747   37748   37748       0   37750   37751   37751       0
   37753   37754   37754       0   37756   37757   37757       0   37759   37760
   37760       0   37762   37763   37763       0   37765   37766   37766       0
   37768   37769   37769       0   37771   37772   37772       0   37774   37775
   37775       0   37777   37778   37778       0   37780   37781   37781       0
   37783   37784   37784       0   37786   37787   37787       0   37789   37790
   37790       0   37792   37793   37793       0   37795   37796   37796       0
   37798   37799   37799       0   37801   37802   37802       0   37804   37805
   37805       0   37807   37808   37808       0   37810   37811   37811       0
   37813   37814   37814       0   37816   37817   37817       0   37819   37820
   37820       0   37822   37823   37823       0   37825   37826   37826       0
   37828   37829   37829       0   37831   37832   37832       0   37834   37835
   37835       0   37837   37838   37838       0   37840   37841   37841       0
   37843   37844   37844       0   37846   37847   37847       0   37849   37850
   37850       0   37852   37853   37853       0   37855   37856   37856       0
   37858   37859   37859       0   37861   37862   37862       0   37864   37865
   37865       0   37867   37868   37868       0   37870   37871   37871       0
   37873   37874   37874       0   37876   37877   37877       0   37879   37880
   37880       0   37882   37883   37883       0   37885   37886   37886       0
   37888   37889   37889       0   37891   37892   37892       0   37894   37895
   37895       0   37897   37898   37898       0   37900   37901   37901       0
   37903   37904   37904       0   37906   37907   37907       0   37909   37910
   37910       0   37912   37913   37913       0   37915   37916   37916       0
   37918   37919   37919       0   37921   37922   37922       0   37924   37925
   37925       0   37927   37928   37928       0   37930   37931   37931       0
   37933   37934   37934       0   37936   37937   37937       0   37939   37940
   37940       0   37942   37943   37943       0   37945   37946   37946       0
   37948   37949   37949       0   37951   37952   37952       0   37954   37955
   37955       0   37957   37958   37958       0   37960   37961   37961       0
   37963   37964   37964       0   37966   37967   37967       0   37969   37970
   37970       0   37972   37973   37973       0   37975   37976   37976       0
   37978   37979   37979       0   37981   37982   37982       0   37984   37985
   37985       0   37987   37988   37988       0   37990   37991   37991       0
   37993   37994   37994       0   37996   37997   37997       0   37999   38000
   38000       0   38002   38003   38003       0   38005   38006   38006       0
   38008   38009   38009       0   38011   38012   38012       0   38014   38015
   38015       0   38017   38018   38018       0   38020   38021   38021       0
   38023   38024   38024       0   38026   38027   38027       0   38029   38030
   38030       0   38032   38033   38033       0   38035   38036   38036       0
   38038   38039   38039       0   38041   38042   38042       0   38044   38045
   38045       0   38047   38048   38048       0   38050   38051   38051       0
   38053   38054   38054       0   38056   38057   38057       0   38059   38060
   38060       0   38062   38063   38063       0   38065   38066   38066       0
   38068   38069   38069       0   38071   38072   38072       0   38074   38075
   38075       0   38077   38078   38078       0   38080   38081   38081       0
   38083   38084   38084       0   38086   38087   38087       0   38089   38090
   38090       0   38092   38093   38093       0   38095   38096   38096       0
   38098   38099   38099       0   38101   38102   38102       0   38104   38105
   38105       0   38107   38108   38108       0   38110   38111   38111       0
   38113   38114   38114       0   38116   38117   38117       0   38119   38120
   38120       0   38122   38123   38123       0   38125   38126   38126       0
   38128   38129   38129       0   38131   38132   38132       0   38134   38135
   38135       0   38137   38138   38138       0   38140   38141   38141       0
   38143   38144   38144       0   38146   38147   38147       0   38149   38150
   38150       0   38152   38153   38153       0   38155   38156   38156       0
   38158   38159   38159       0   38161   38162   38162       0   38164   38165
   38165       0   38167   38168   38168       0   38170   38171   38171       0
   38173   38174   38174       0   38176   38177   38177       0   38179   38180
   38180       0   38182   38183   38183       0   38185   38186   38186       0
   38188   38189   38189       0   38191   38192   38192       0   38194   38195
   38195       0   38197   38198   38198       0   38200   38201   38201       0
   38203   38204   38204       0   38206   38207   38207       0   38209   38210
   38210       0   38212   38213   38213       0   38215   38216   38216       0
   38218   38219   38219       0   38221   38222   38222       0   38224   38225
   38225       0   38227   38228   38228       0   38230   38231   38231       0
   38233   38234   38234       0   38236   38237   38237       0   38239   38240
   38240       0   38242   38243   38243       0   38245   38246   38246       0
   38248   38249   38249       0   38251   38252   38252       0   38254   38255
   38255       0   38257   38258   38258       0   38260   38261   38261       0
   38263   38264   38264       0   38266   38267   38267       0   38269   38270
   38270       0   38272   38273   38273       0   38275   38276   38276       0
   38278   38279   38279       0   38281   38282   38282       0   38284   38285
   38285       0   38287   38288   38288       0   38290   38291   38291       0
   38293   38294   38294       0   38296   38297   38297       0   38299   38300
   38300       0   38302   38303   38303       0   38305   38306   38306       0
   38308   38309   38309       0   38311   38312   38312       0   38314   38315
   38315       0   38317   38318   38318       0   38320   38321   38321       0
   38323   38324   38324       0   38326   38327   38327       0   38329   38330
   38330       0   38332   38333   38333       0   38335   38336   38336       0
   38338   38339   38339       0   38341   38342   38342       0   38344   38345
   38345       0   38347   38348   38348       0   38350   38351   38351       0
   38353   38354   38354       0   38356   38357   38357       0   38359   38360
   38360       0   38362   38363   38363       0   38365   38366   38366       0
   38368   38369   38369       0   38371   38372   38372       0   38374   38375
   38375       0   38377   38378   38378       0   38380   38381   38381       0
   38383   38384   38384       0   38386   38387   38387       0   38389   38390
   38390       0   38392   38393   38393       0   38395   38396   38396       0
   38398   38399   38399       0   38401   38402   38402       0   38404   38405
   38405       0   38407   38408   38408       0   38410   38411   38411       0
   38413   38414   38414       0   38416   38417   38417       0   38419   38420
   38420       0   38422   38423   38423       0   38425   38426   38426       0
   38428   38429   38429       0   38431   38432   38432       0   38434   38435
   38435       0   38437   38438   38438       0   38440   38441   38441       0
   38443   38444   38444       0   38446   38447   38447       0   38449   38450
   38450       0   38452   38453   38453       0   38455   38456   38456       0
   38458   38459   38459       0   38461   38462   38462       0   38464   38465
   38465       0   38467   38468   38468       0   38470   38471   38471       0
   38473   38474   38474       0   38476   38477   38477       0   38479   38480
   38480       0   38482   38483   38483       0   38485   38486   38486       0
   38488   38489   38489       0   38491   38492   38492       0   38494   38495
   38495       0   38497   38498   38498       0   38500   38501   38501       0
   38503   38504   38504       0   38506   38507   38507       0   38509   38510
   38510       0   38512   38513   38513       0   38515   38516   38516       0
   38518   38519   38519       0   38521   38522   38522       0   38524   38525
   38525       0   38527   38528   38528       0   38530   38531   38531       0
   38533   38534   38534       0   38536   38537   38537       0   38539   38540
   38540       0   38542   38543   38543       0   38545   38546   38546       0
   38548   38549   38549       0   38551   38552   38552       0   38554   38555
   38555       0   38557   38558   38558       0   38560   38561   38561       0
   38563   38564   38564       0   38566   38567   38567       0   38569   38570
   38570       0   38572   38573   38573       0   38575   38576   38576       0
   38578   38579   38579       0   38581   38582   38582       0   38584   38585
   38585       0   38587   38588   38588       0   38590   38591   38591       0
   38593   38594   38594       0   38596   38597   38597       0   38599   38600
   38600       0   38602   38603   38603       0   38605   38606   38606       0
   38608   38609   38609       0   38611   38612   38612       0   38614   38615
   38615       0   38617   38618   38618       0   38620   38621   38621       0
   38623   38624   38624       0   38626   38627   38627       0   38629   38630
   38630       0   38632   38633   38633       0   38635   38636   38636       0
   38638   38639   38639       0   38641   38642   38642       0   38644   38645
   38645       0   38647   38648   38648       0   38650   38651   38651       0
   38653   38654   38654       0   38656   38657   38657       0   38659   38660
   38660       0   38662   38663   38663       0   38665   38666   38666       0
   38668   38669   38669       0   38671   38672   38672       0   38674   38675
   38675       0   38677   38678   38678       0   38680   38681   38681       0
   38683   38684   38684       0   38686   38687   38687       0   38689   38690
   38690       0   38692   38693   38693       0   38695   38696   38696       0
   38698   38699   38699       0   38701   38702   38702       0   38704   38705
   38705       0   38707   38708   38708       0   38710   38711   38711       0
   38713   38714   38714       0   38716   38717   38717       0   38719   38720
   38720       0   38722   38723   38723       0   38725   38726   38726       0
   38728   38729   38729       0   38731   38732   38732       0   38734   38735
   38735       0   38737   38738   38738       0   38740   38741   38741       0
   38743   38744   38744       0   38746   38747   38747       0   38749   38750
   38750       0   38752   38753   38753       0   38755   38756   38756       0
   38758   38759   38759       0   38761   38762   38762       0   38764   38765
   38765       0   38767   38768   38768       0   38770   38771   38771       0
   38773   38774   38774       0   38776   38777   38777       0   38779   38780
   38780       0   38782   38783   38783       0   38785   38786   38786       0
   38788   38789   38789       0   38791   38792   38792       0   38794   38795
   38795       0   38797   38798   38798       0   38800   38801   38801       0
   38803   38804   38804       0   38806   38807   38807       0   38809   38810
   38810       0   38812   38813   38813       0   38815   38816   38816       0
   38818   38819   38819       0   38821   38822   38822       0   38824   38825
   38825       0   38827   38828   38828       0   38830   38831   38831       0
   38833   38834   38834       0   38836   38837   38837       0   38839   38840
   38840       0   38842   38843   38843       0   38845   38846   38846       0
   38848   38849   38849       0   38851   38852   38852       0   38854   38855
   38855       0   38857   38858   38858       0   38860   38861   38861       0
   38863   38864   38864       0   38866   38867   38867       0   38869   38870
   38870       0   38872   38873   38873       0   38875   38876   38876       0
   38878   38879   38879       0   38881   38882   38882       0   38884   38885
   38885       0   38887   38888   38888       0   38890   38891   38891       0
   38893   38894   38894       0   38896   38897   38897       0   38899   38900
   38900       0   38902   38903   38903       0   38905   38906   38906       0
   38908   38909   38909       0   38911   38912   38912       0   38914   38915
   38915       0   38917   38918   38918       0   38920   38921   38921       0
   38923   38924   38924       0   38926   38927   38927       0   38929   38930
   38930       0   38932   38933   38933       0   38935   38936   38936       0
   38938   38939   38939       0   38941   38942   38942       0   38944   38945
   38945       0   38947   38948   38948       0   38950   38951   38951       0
   38953   38954   38954       0   38956   38957   38957       0   38959   38960
   38960       0   38962   38963   38963       0   38965   38966   38966       0
   38968   38969   38969       0   38971   38972   38972       0   38974   38975
   38975       0   38977   38978   38978       0   38980   38981   38981       0
   38983   38984   38984       0   38986   38987   38987       0   38989   38990
   38990       0   38992   38993   38993       0   38995   38996   38996       0
   38998   38999   38999       0   39001   39002   39002       0   39004   39005
   39005       0   39007   39008   39008       0   39010   39011   39011       0
   39013   39014   39014       0   39016   39017   39017       0   39019   39020
   39020       0   39022   39023   39023       0   39025   39026   39026       0
   39028   39029   39029       0   39031   39032   39032       0   39034   39035
   39035       0   39037   39038   39038       0   39040   39041   39041       0
   39043   39044   39044       0   39046   39047   39047       0   39049   39050
   39050       0   39052   39053   39053       0   39055   39056   39056       0
   39058   39059   39059       0   39061   39062   39062       0   39064   39065
   39065       0   39067   39068   39068       0   39070   39071   39071       0
   39073   39074   39074       0   39076   39077   39077       0   39079   39080
   39080       0   39082   39083   39083       0   39085   39086   39086       0
   39088   39089   39089       0   39091   39092   39092       0   39094   39095
   39095       0   39097   39098   39098       0   39100   39101   39101       0
   39103   39104   39104       0   39106   39107   39107       0   39109   39110
   39110       0   39112   39113   39113       0   39115   39116   39116       0
   39118   39119   39119       0   39121   39122   39122       0   39124   39125
   39125       0   39127   39128   39128       0   39130   39131   39131       0
   39133   39134   39134       0   39136   39137   39137       0   39139   39140
   39140       0   39142   39143   39143       0   39145   39146   39146       0
   39148   39149   39149       0   39151   39152   39152       0   39154   39155
   39155       0   39157   39158   39158       0   39160   39161   39161       0
   39163   39164   39164       0   39166   39167   39167       0   39169   39170
   39170       0   39172   39173   39173       0   39175   39176   39176       0
   39178   39179   39179       0   39181   39182   39182       0   39184   39185
   39185       0   39187   39188   39188       0   39190   39191   39191       0
   39193   39194   39194       0   39196   39197   39197       0   39199   39200
   39200       0   39202   39203   39203       0   39205   39206   39206       0
   39208   39209   39209       0   39211   39212   39212       0   39214   39215
   39215       0   39217   39218   39218       0   39220   39221   39221       0
   39223   39224   39224       0   39226   39227   39227       0   39229   39230
   39230       0   39232   39233   39233       0   39235   39236   39236       0
   39238   39239   39239       0   39241   39242   39242       0   39244   39245
   39245       0   39247   39248   39248       0   39250   39251   39251       0
   39253   39254   39254       0   39256   39257   39257       0   39259   39260
   39260       0   39262   39263   39263       0   39265   39266   39266       0
   39268   39269   39269       0   39271   39272   39272       0   39274   39275
   39275       0   39277   39278   39278       0   39280   39281   39281       0
   39283   39284   39284       0   39286   39287   39287       0   39289   39290
   39290       0   39292   39293   39293       0   39295   39296   39296       0
   39298   39299   39299       0   39301   39302   39302       0   39304   39305
   39305       0   39307   39308   39308       0   39310   39311   39311       0
   39313   39314   39314       0   39316   39317   39317       0   39319   39320
   39320       0   39322   39323   39323       0   39325   39326   39326       0
   39328   39329   39329       0   39331   39332   39332       0   39334   39335
   39335       0   39337   39338   39338       0   39340   39341   39341       0
   39343   39344   39344       0   39346   39347   39347       0   39349   39350
   39350       0   39352   39353   39353       0   39355   39356   39356       0
   39358   39359   39359       0   39361   39362   39362       0   39364   39365
   39365       0   39367   39368   39368       0   39370   39371   39371       0
   39373   39374   39374       0   39376   39377   39377       0   39379   39380
   39380       0   39382   39383   39383       0   39385   39386   39386       0
   39388   39389   39389       0   39391   39392   39392       0   39394   39395
   39395       0   39397   39398   39398       0   39400   39401   39401       0
   39403   39404   39404       0   39406   39407   39407       0   39409   39410
   39410       0   39412   39413   39413       0   39415   39416   39416       0
   39418   39419   39419       0   39421   39422   39422       0   39424   39425
   39425       0   39427   39428   39428       0   39430   39431   39431       0
   39433   39434   39434       0   39436   39437   39437       0   39439   39440
   39440       0   39442   39443   39443       0   39445   39446   39446       0
   39448   39449   39449       0   39451   39452   39452       0   39454   39455
   39455       0   39457   39458   39458       0   39460   39461   39461       0
   39463   39464   39464       0   39466   39467   39467       0   39469   39470
   39470       0   39472   39473   39473       0   39475   39476   39476       0
   39478   39479   39479       0   39481   39482   39482       0   39484   39485
   39485       0   39487   39488   39488       0   39490   39491   39491       0
   39493   39494   39494       0   39496   39497   39497       0   39499   39500
   39500       0   39502   39503   39503       0   39505   39506   39506       0
   39508   39509   39509       0   39511   39512   39512       0   39514   39515
   39515       0   39517   39518   39518       0   39520   39521   39521       0
   39523   39524   39524       0   39526   39527   39527       0   39529   39530
   39530       0   39532   39533   39533       0   39535   39536   39536       0
   39538   39539   39539       0   39541   39542   39542       0   39544   39545
   39545       0   39547   39548   39548       0   39550   39551   39551       0
   39553   39554   39554       0   39556   39557   39557       0   39559   39560
   39560       0   39562   39563   39563       0   39565   39566   39566       0
   39568   39569   39569       0   39571   39572   39572       0   39574   39575
   39575       0   39577   39578   39578       0   39580   39581   39581       0
   39583   39584   39584       0   39586   39587   39587       0   39589   39590
   39590       0   39592   39593   39593       0   39595   39596   39596       0
   39598   39599   39599       0   39601   39602   39602       0   39604   39605
   39605       0   39607   39608   39608       0   39610   39611   39611       0
   39613   39614   39614       0   39616   39617   39617       0   39619   39620
   39620       0   39622   39623   39623       0   39625   39626   39626       0
   39628   39629   39629       0   39631   39632   39632       0   39634   39635
   39635       0   39637   39638   39638       0   39640   39641   39641       0
   39643   39644   39644       0   39646   39647   39647       0   39649   39650
   39650       0   39652   39653   39653       0   39655   39656   39656       0
   39658   39659   39659       0   39661   39662   39662       0   39664   39665
   39665       0   39667   39668   39668       0   39670   39671   39671       0
   39673   39674   39674       0   39676   39677   39677       0   39679   39680
   39680       0   39682   39683   39683       0   39685   39686   39686       0
   39688   39689   39689       0   39691   39692   39692       0   39694   39695
   39695       0   39697   39698   39698       0   39700   39701   39701       0
   39703   39704   39704       0   39706   39707   39707       0   39709   39710
   39710       0   39712   39713   39713       0   39715   39716   39716       0
   39718   39719   39719       0   39721   39722   39722       0   39724   39725
   39725       0   39727   39728   39728       0   39730   39731   39731       0
   39733   39734   39734       0   39736   39737   39737       0   39739   39740
   39740       0   39742   39743   39743       0   39745   39746   39746       0
   39748   39749   39749       0   39751   39752   39752       0   39754   39755
   39755       0   39757   39758   39758       0   39760   39761   39761       0
   39763   39764   39764       0   39766   39767   39767       0   39769   39770
   39770       0   39772   39773   39773       0   39775   39776   39776       0
   39778   39779   39779       0   39781   39782   39782       0   39784   39785
   39785       0   39787   39788   39788       0   39790   39791   39791       0
   39793   39794   39794       0   39796   39797   39797       0   39799   39800
   39800       0   39802   39803   39803       0   39805   39806   39806       0
   39808   39809   39809       0   39811   39812   39812       0   39814   39815
   39815       0   39817   39818   39818       0   39820   39821   39821       0
   39823   39824   39824       0   39826   39827   39827       0   39829   39830
   39830       0   39832   39833   39833       0   39835   39836   39836       0
   39838   39839   39839       0   39841   39842   39842       0   39844   39845
   39845       0   39847   39848   39848       0   39850   39851   39851       0
   39853   39854   39854       0   39856   39857   39857       0   39859   39860
   39860       0   39862   39863   39863       0   39865   39866   39866       0
   39868   39869   39869       0   39871   39872   39872       0   39874   39875
   39875       0   39877   39878   39878       0   39880   39881   39881       0
   39883   39884   39884       0   39886   39887   39887       0   39889   39890
   39890       0   39892   39893   39893       0   39895   39896   39896       0
   39898   39899   39899       0   39901   39902   39902       0   39904   39905
   39905       0   39907   39908   39908       0   39910   39911   39911       0
   39913   39914   39914       0   39916   39917   39917       0   39919   39920
   39920       0   39922   39923   39923       0   39925   39926   39926       0
   39928   39929   39929       0   39931   39932   39932       0   39934   39935
   39935       0   39937   39938   39938       0   39940   39941   39941       0
   39943   39944   39944       0   39946   39947   39947       0   39949   39950
   39950       0   39952   39953   39953       0   39955   39956   39956       0
   39958   39959   39959       0   39961   39962   39962       0   39964   39965
   39965       0   39967   39968   39968       0   39970   39971   39971       0
   39973   39974   39974       0   39976   39977   39977       0   39979   39980
   39980       0   39982   39983   39983       0   39985   39986   39986       0
   39988   39989   39989       0   39991   39992   39992       0   39994   39995
   39995       0   39997   39998   39998       0   40000   40001   40001       0
   40003   40004   40004       0   40006   40007   40007       0   40009   40010
   40010       0   40012   40013   40013       0   40015   40016   40016       0
   40018   40019   40019       0   40021   40022   40022       0   40024   40025
   40025       0   40027   40028   40028       0   40030   40031   40031       0
   40033   40034   40034       0   40036   40037   40037       0   40039   40040
   40040       0   40042   40043   40043       0   40045   40046   40046       0
   40048   40049   40049       0   40051   40052   40052       0   40054   40055
   40055       0   40057   40058   40058       0   40060   40061   40061       0
   40063   40064   40064       0   40066   40067   40067       0   40069   40070
   40070       0   40072   40073   40073       0   40075   40076   40076       0
   40078   40079   40079       0   40081   40082   40082       0   40084   40085
   40085       0   40087   40088   40088       0   40090   40091   40091       0
   40093   40094   40094       0   40096   40097   40097       0   40099   40100
   40100       0   40102   40103   40103       0   40105   40106   40106       0
   40108   40109   40109       0   40111   40112   40112       0   40114   40115
   40115       0   40117   40118   40118       0   40120   40121   40121       0
   40123   40124   40124       0   40126   40127   40127       0   40129   40130
   40130       0   40132   40133   40133       0   40135   40136   40136       0
   40138   40139   40139       0   40141   40142   40142       0   40144   40145
   40145       0   40147   40148   40148       0   40150   40151   40151       0
   40153   40154   40154       0   40156   40157   40157       0   40159   40160
   40160       0   40162   40163   40163       0   40165   40166   40166       0
   40168   40169   40169       0   40171   40172   40172       0   40174   40175
   40175       0   40177   40178   40178       0   40180   40181   40181       0
   40183   40184   40184       0   40186   40187   40187       0   40189   40190
   40190       0   40192   40193   40193       0   40195   40196   40196       0
   40198   40199   40199       0   40201   40202   40202       0   40204   40205
   40205       0   40207   40208   40208       0   40210   40211   40211       0
   40213   40214   40214       0   40216   40217   40217       0   40219   40220
   40220       0   40222   40223   40223       0   40225   40226   40226       0
   40228   40229   40229       0   40231   40232   40232       0   40234   40235
   40235       0   40237   40238   40238       0   40240   40241   40241       0
   40243   40244   40244       0   40246   40247   40247       0   40249   40250
   40250       0   40252   40253   40253       0   40255   40256   40256       0
   40258   40259   40259       0   40261   40262   40262       0   40264   40265
   40265       0   40267   40268   40268       0   40270   40271   40271       0
   40273   40274   40274       0   40276   40277   40277       0   40279   40280
   40280       0   40282   40283   40283       0   40285   40286   40286       0
   40288   40289   40289       0   40291   40292   40292       0   40294   40295
   40295       0   40297   40298   40298       0   40300   40301   40301       0
   40303   40304   40304       0   40306   40307   40307       0   40309   40310
   40310       0   40312   40313   40313       0   40315   40316   40316       0
   40318   40319   40319       0   40321   40322   40322       0   40324   40325
   40325       0   40327   40328   40328       0   40330   40331   40331       0
   40333   40334   40334       0   40336   40337   40337       0   40339   40340
   40340       0   40342   40343   40343       0   40345   40346   40346       0
   40348   40349   40349       0   40351   40352   40352       0   40354   40355
   40355       0   40357   40358   40358       0   40360   40361   40361       0
   40363   40364   40364       0   40366   40367   40367       0   40369   40370
   40370       0   40372   40373   40373       0   40375   40376   40376       0
   40378   40379   40379       0   40381   40382   40382       0   40384   40385
   40385       0   40387   40388   40388       0   40390   40391   40391       0
   40393   40394   40394       0   40396   40397   40397       0   40399   40400
   40400       0   40402   40403   40403       0   40405   40406   40406       0
   40408   40409   40409       0   40411   40412   40412       0   40414   40415
   40415       0   40417   40418   40418       0   40420   40421   40421       0
   40423   40424   40424       0   40426   40427   40427       0   40429   40430
   40430       0   40432   40433   40433       0   40435   40436   40436       0
   40438   40439   40439       0   40441   40442   40442       0   40444   40445
   40445       0   40447   40448   40448       0   40450   40451   40451       0
   40453   40454   40454       0   40456   40457   40457       0   40459   40460
   40460       0   40462   40463   40463       0   40465   40466   40466       0
   40468   40469   40469       0   40471   40472   40472       0   40474   40475
   40475       0   40477   40478   40478       0   40480   40481   40481       0
   40483   40484   40484       0   40486   40487   40487       0   40489   40490
   40490       0   40492   40493   40493       0   40495   40496   40496       0
   40498   40499   40499       0   40501   40502   40502       0   40504   40505
   40505       0   40507   40508   40508       0   40510   40511   40511       0
   40513   40514   40514       0   40516   40517   40517       0   40519   40520
   40520       0   40522   40523   40523       0   40525   40526   40526       0
   40528   40529   40529       0   40531   40532   40532       0   40534   40535
   40535       0   40537   40538   40538       0   40540   40541   40541       0
   40543   40544   40544       0   40546   40547   40547       0   40549   40550
   40550       0   40552   40553   40553       0   40555   40556   40556       0
   40558   40559   40559       0   40561   40562   40562       0   40564   40565
   40565       0   40567   40568   40568       0   40570   40571   40571       0
   40573   40574   40574       0   40576   40577   40577       0   40579   40580
   40580       0   40582   40583   40583       0   40585   40586   40586       0
   40588   40589   40589       0   40591   40592   40592       0   40594   40595
   40595       0   40597   40598   40598       0   40600   40601   40601       0
   40603   40604   40604       0   40606   40607   40607       0   40609   40610
   40610       0   40612   40613   40613       0   40615   40616   40616       0
   40618   40619   40619       0   40621   40622   40622       0   40624   40625
   40625       0   40627   40628   40628       0   40630   40631   40631       0
   40633   40634   40634       0   40636   40637   40637       0   40639   40640
   40640       0   40642   40643   40643       0   40645   40646   40646       0
   40648   40649   40649       0   40651   40652   40652       0   40654   40655
   40655       0   40657   40658   40658       0   40660   40661   40661       0
   40663   40664   40664       0   40666   40667   40667       0   40669   40670
   40670       0   40672   40673   40673       0   40675   40676   40676       0
   40678   40679   40679       0   40681   40682   40682       0   40684   40685
   40685       0   40687   40688   40688       0   40690   40691   40691       0
   40693   40694   40694       0   40696   40697   40697       0   40699   40700
   40700       0   40702   40703   40703       0   40705   40706   40706       0
   40708   40709   40709       0   40711   40712   40712       0   40714   40715
   40715       0   40717   40718   40718       0   40720   40721   40721       0
   40723   40724   40724       0   40726   40727   40727       0   40729   40730
   40730       0   40732   40733   40733       0   40735   40736   40736       0
   40738   40739   40739       0   40741   40742   40742       0   40744   40745
   40745       0   40747   40748   40748       0   40750   40751   40751       0
   40753   40754   40754       0   40756   40757   40757       0   40759   40760
   40760       0   40762   40763   40763       0   40765   40766   40766       0
   40768   40769   40769       0   40771   40772   40772       0   40774   40775
   40775       0   40777   40778   40778       0   40780   40781   40781       0
   40783   40784   40784       0   40786   40787   40787       0   40789   40790
   40790       0   40792   40793   40793       0   40795   40796   40796       0
   40798   40799   40799       0   40801   40802   40802       0   40804   40805
   40805       0   40807   40808   40808       0   40810   40811   40811       0
   40813   40814   40814       0   40816   40817   40817       0   40819   40820
   40820       0   40822   40823   40823       0   40825   40826   40826       0
   40828   40829   40829       0   40831   40832   40832       0   40834   40835
   40835       0   40837   40838   40838       0   40840   40841   40841       0
   40843   40844   40844       0   40846   40847   40847       0   40849   40850
   40850       0   40852   40853   40853       0   40855   40856   40856       0
   40858   40859   40859       0   40861   40862   40862       0   40864   40865
   40865       0   40867   40868   40868       0   40870   40871   40871       0
   40873   40874   40874       0   40876   40877   40877       0   40879   40880
   40880       0   40882   40883   40883       0   40885   40886   40886       0
   40888   40889   40889       0   40891   40892   40892       0   40894   40895
   40895       0   40897   40898   40898       0   40900   40901   40901       0
   40903   40904   40904       0   40906   40907   40907       0   40909   40910
   40910       0   40912   40913   40913       0   40915   40916   40916       0
   40918   40919   40919       0   40921   40922   40922       0   40924   40925
   40925       0   40927   40928   40928       0   40930   40931   40931       0
   40933   40934   40934       0   40936   40937   40937       0   40939   40940
   40940       0   40942   40943   40943       0   40945   40946   40946       0
   40948   40949   40949       0   40951   40952   40952       0   40954   40955
   40955       0   40957   40958   40958       0   40960   40961   40961       0
   40963   40964   40964       0   40966   40967   40967       0   40969   40970
   40970       0   40972   40973   40973       0   40975   40976   40976       0
   40978   40979   40979       0   40981   40982   40982       0   40984   40985
   40985       0   40987   40988   40988       0   40990   40991   40991       0
   40993   40994   40994       0   40996   40997   40997       0   40999   41000
   41000       0   41002   41003   41003       0   41005   41006   41006       0
   41008   41009   41009       0   41011   41012   41012       0   41014   41015
   41015       0   41017   41018   41018       0   41020   41021   41021       0
   41023   41024   41024       0   41026   41027   41027       0   41029   41030
   41030       0   41032   41033   41033       0   41035   41036   41036       0
   41038   41039   41039       0   41041   41042   41042       0   41044   41045
   41045       0   41047   41048   41048       0   41050   41051   41051       0
   41053   41054   41054       0   41056   41057   41057       0   41059   41060
   41060       0   41062   41063   41063       0   41065   41066   41066       0
   41068   41069   41069       0   41071   41072   41072       0   41074   41075
   41075       0   41077   41078   41078       0   41080   41081   41081       0
   41083   41084   41084       0   41086   41087   41087       0   41089   41090
   41090       0   41092   41093   41093       0   41095   41096   41096       0
   41098   41099   41099       0   41101   41102   41102       0   41104   41105
   41105       0   41107   41108   41108       0   41110   41111   41111       0
   41113   41114   41114       0   41116   41117   41117       0   41119   41120
   41120       0   41122   41123   41123       0   41125   41126   41126       0
   41128   41129   41129       0   41131   41132   41132       0   41134   41135
   41135       0   41137   41138   41138       0   41140   41141   41141       0
   41143   41144   41144       0   41146   41147   41147       0   41149   41150
   41150       0   41152   41153   41153       0   41155   41156   41156       0
   41158   41159   41159       0   41161   41162   41162       0   41164   41165
   41165       0   41167   41168   41168       0   41170   41171   41171       0
   41173   41174   41174       0   41176   41177   41177       0   41179   41180
   41180       0   41182   41183   41183       0   41185   41186   41186       0
   41188   41189   41189       0   41191   41192   41192       0   41194   41195
   41195       0   41197   41198   41198       0   41200   41201   41201       0
   41203   41204   41204       0   41206   41207   41207       0   41209   41210
   41210       0   41212   41213   41213       0   41215   41216   41216       0
   41218   41219   41219       0   41221   41222   41222       0   41224   41225
   41225       0   41227   41228   41228       0   41230   41231   41231       0
   41233   41234   41234       0   41236   41237   41237       0   41239   41240
   41240       0   41242   41243   41243       0   41245   41246   41246       0
   41248   41249   41249       0   41251   41252   41252       0   41254   41255
   41255       0   41257   41258   41258       0   41260   41261   41261       0
   41263   41264   41264       0   41266   41267   41267       0   41269   41270
   41270       0   41272   41273   41273       0   41275   41276   41276       0
   41278   41279   41279       0   41281   41282   41282       0   41284   41285
   41285       0   41287   41288   41288       0   41290   41291   41291       0
   41293   41294   41294       0   41296   41297   41297       0   41299   41300
   41300       0   41302   41303   41303       0   41305   41306   41306       0
   41308   41309   41309       0   41311   41312   41312       0   41314   41315
   41315       0   41317   41318   41318       0   41320   41321   41321       0
   41323   41324   41324       0   41326   41327   41327       0   41329   41330
   41330       0   41332   41333   41333       0   41335   41336   41336       0
   41338   41339   41339       0   41341   41342   41342       0   41344   41345
   41345       0   41347   41348   41348       0   41350   41351   41351       0
   41353   41354   41354       0   41356   41357   41357       0   41359   41360
   41360       0   41362   41363   41363       0   41365   41366   41366       0
   41368   41369   41369       0   41371   41372   41372       0   41374   41375
   41375       0   41377   41378   41378       0   41380   41381   41381       0
   41383   41384   41384       0   41386   41387   41387       0   41389   41390
   41390       0   41392   41393   41393       0   41395   41396   41396       0
   41398   41399   41399       0   41401   41402   41402       0   41404   41405
   41405       0   41407   41408   41408       0   41410   41411   41411       0
   41413   41414   41414       0   41416   41417   41417       0   41419   41420
   41420       0   41422   41423   41423       0   41425   41426   41426       0
   41428   41429   41429       0   41431   41432   41432       0   41434   41435
   41435       0   41437   41438   41438       0   41440   41441   41441       0
   41443   41444   41444       0   41446   41447   41447       0   41449   41450
   41450       0   41452   41453   41453       0   41455   41456   41456       0
   41458   41459   41459       0   41461   41462   41462       0   41464   41465
   41465       0   41467   41468   41468       0   41470   41471   41471       0
   41473   41474   41474       0   41476   41477   41477       0   41479   41480
   41480       0   41482   41483   41483       0   41485   41486   41486       0
   41488   41489   41489       0   41491   41492   41492       0   41494   41495
   41495       0   41497   41498   41498       0   41500   41501   41501       0
   41503   41504   41504       0   41506   41507   41507       0   41509   41510
   41510       0   41512   41513   41513       0   41515   41516   41516       0
   41518   41519   41519       0   41521   41522   41522       0   41524   41525
   41525       0   41527   41528   41528       0   41530   41531   41531       0
   41533   41534   41534       0   41536   41537   41537       0   41539   41540
   41540       0   41542   41543   41543       0   41545   41546   41546       0
   41548   41549   41549       0   41551   41552   41552       0   41554   41555
   41555       0   41557   41558   41558       0   41560   41561   41561       0
   41563   41564   41564       0   41566   41567   41567       0   41569   41570
   41570       0   41572   41573   41573       0   41575   41576   41576       0
   41578   41579   41579       0   41581   41582   41582       0   41584   41585
   41585       0   41587   41588   41588       0   41590   41591   41591       0
   41593   41594   41594       0   41596   41597   41597       0   41599   41600
   41600       0   41602   41603   41603       0   41605   41606   41606       0
   41608   41609   41609       0   41611   41612   41612       0   41614   41615
   41615       0   41617   41618   41618       0   41620   41621   41621       0
   41623   41624   41624       0   41626   41627   41627       0   41629   41630
   41630       0   41632   41633   41633       0   41635   41636   41636       0
   41638   41639   41639       0   41641   41642   41642       0   41644   41645
   41645       0   41647   41648   41648       0   41650   41651   41651       0
   41653   41654   41654       0   41656   41657   41657       0   41659   41660
   41660       0   41662   41663   41663       0   41665   41666   41666       0
   41668   41669   41669       0   41671   41672   41672       0   41674   41675
   41675       0   41677   41678   41678       0   41680   41681   41681       0
   41683   41684   41684       0   41686   41687   41687       0   41689   41690
   41690       0   41692   41693   41693       0   41695   41696   41696       0
   41698   41699   41699       0   41701   41702   41702       0   41704   41705
   41705       0   41707   41708   41708       0   41710   41711   41711       0
   41713   41714   41714       0   41716   41717   41717       0   41719   41720
   41720       0   41722   41723   41723       0   41725   41726   41726       0
   41728   41729   41729       0   41731   41732   41732       0   41734   41735
   41735       0   41737   41738   41738       0   41740   41741   41741       0
   41743   41744   41744       0   41746   41747   41747       0   41749   41750
   41750       0   41752   41753   41753       0   41755   41756   41756       0
   41758   41759   41759       0   41761   41762   41762       0   41764   41765
   41765       0   41767   41768   41768       0   41770   41771   41771       0
   41773   41774   41774       0   41776   41777   41777       0
%FLAG HBOND_ACOEF                                                               
%FORMAT(5E16.8)                                                                 

%FLAG HBOND_BCOEF                                                               
%FORMAT(5E16.8)                                                                 

%FLAG HBCUT                                                                     
%FORMAT(5E16.8)                                                                 

%FLAG AMBER_ATOM_TYPE                                                           
%FORMAT(20a4)                                                                   
ca  ca  ca  ca  ca  ca  ca  ca  ca  ca  ca  ca  ca  ca  ca  ca  ha  ha  ha  ha  
ha  ha  ha  ha  ha  ha  c2  ha  ha  o   c   c5  hc  c5  c5  c2  c5  c5  c2  hc  
n   c3  c3  c3  c3  os  c6  c6  oh  c6  c3  oh  os  c6  oh  c6  oh  c   o   hc  
ha  hc  hc  hc  ha  h1  h1  hc  hc  hc  hc  h1  h1  h1  h1  ho  h1  h1  h1  ho  
h2  ho  h1  ho  o   c   c5  hc  c5  c5  c2  c5  c5  c2  hc  n   c3  c3  c3  c3  
os  c6  c6  oh  c6  c3  oh  os  c6  oh  c6  oh  c   o   hc  ha  hc  hc  hc  ha  
h1  h1  hc  hc  hc  hc  h1  h1  h1  h1  ho  h1  h1  h1  ho  h2  ho  h1  ho  o   
c   c5  hc  c5  c5  c2  c5  c5  c2  hc  n   c3  c3  c3  c3  os  c6  c6  oh  c6  
c3  oh  os  c6  oh  c6  oh  c   o   hc  ha  hc  hc  hc  ha  h1  h1  hc  hc  hc  
hc  h1  h1  h1  h1  ho  h1  h1  h1  ho  h2  ho  h1  ho  o   c   c5  hc  c5  c5  
c2  c5  c5  c2  hc  n   c3  c3  c3  c3  os  c6  c6  oh  c6  c3  oh  os  c6  oh  
c6  oh  c   o   hc  ha  hc  hc  hc  ha  h1  h1  hc  hc  hc  hc  h1  h1  h1  h1  
ho  h1  h1  h1  ho  h2  ho  h1  ho  o   c   c5  hc  c5  c5  c2  c5  c5  c2  hc  
n   c3  c3  c3  c3  os  c6  c6  oh  c6  c3  oh  os  c6  oh  c6  oh  c   o   hc  
ha  hc  hc  hc  ha  h1  h1  hc  hc  hc  hc  h1  h1  h1  h1  ho  h1  h1  h1  ho  
h2  ho  h1  ho  o   c   c5  hc  c5  c5  c2  c5  c5  c2  hc  n   c3  c3  c3  c3  
os  c6  c6  oh  c6  c3  oh  os  c6  oh  c6  oh  c   o   hc  ha  hc  hc  hc  ha  
h1  h1  hc  hc  hc  hc  h1  h1  h1  h1  ho  h1  h1  h1  ho  h2  ho  h1  ho  o   
c   c5  hc  c5  c5  c2  c5  c5  c2  hc  n   c3  c3  c3  c3  os  c6  c6  oh  c6  
c3  oh  os  c6  oh  c6  oh  c   o   hc  ha  hc  hc  hc  ha  h1  h1  hc  hc  hc  
hc  h1  h1  h1  h1  ho  h1  h1  h1  ho  h2  ho  h1  ho  o   c   c5  hc  c5  c5  
c2  c5  c5  c2  hc  n   c3  c3  c3  c3  os  c6  c6  oh  c6  c3  oh  os  c6  oh  
c6  oh  c   o   hc  ha  hc  hc  hc  ha  h1  h1  hc  hc  hc  hc  h1  h1  h1  h1  
ho  h1  h1  h1  ho  h2  ho  h1  ho  o   c   c5  hc  c5  c5  c2  c5  c5  c2  hc  
n   c3  c3  c3  c3  os  c6  c6  oh  c6  c3  oh  os  c6  oh  c6  oh  c   o   hc  
ha  hc  hc  hc  ha  h1  h1  hc  hc  hc  hc  h1  h1  h1  h1  ho  h1  h1  h1  ho  
h2  ho  h1  ho  o   c   c5  hc  c5  c5  c2  c5  c5  c2  hc  n   c3  c3  c3  c3  
os  c6  c6  oh  c6  c3  oh  os  c6  oh  c6  oh  c   o   hc  ha  hc  hc  hc  ha  
h1  h1  hc  hc  hc  hc  h1  h1  h1  h1  ho  h1  h1  h1  ho  h2  ho  h1  ho  c2  
ha  ha  c2  ha  ha  o   c   c5  hc  c5  c5  c2  c5  c5  c2  hc  n   c3  c3  c3  
c3  os  c6  c6  oh  c6  c3  oh  os  c6  oh  c6  oh  c   o   hc  ha  hc  hc  hc  
ha  h1  h1  hc  hc  hc  hc  h1  h1  h1  h1  ho  h1  h1  h1  ho  h2  ho  h1  ho  
o   c   c5  hc  c5  c5  c2  c5  c5  c2  hc  n   c3  c3  c3  c3  os  c6  c6  oh  
c6  c3  oh  os  c6  oh  c6  oh  c   o   hc  ha  hc  hc  hc  ha  h1  h1  hc  hc  
hc  hc  h1  h1  h1  h1  ho  h1  h1  h1  ho  h2  ho  h1  ho  o   c   c5  hc  c5  
c5  c2  c5  c5  c2  hc  n   c3  c3  c3  c3  os  c6  c6  oh  c6  c3  oh  os  c6  
oh  c6  oh  c   o   hc  ha  hc  hc  hc  ha  h1  h1  hc  hc  hc  hc  h1  h1  h1  
h1  ho  h1  h1  h1  ho  h2  ho  h1  ho  o   c   c5  hc  c5  c5  c2  c5  c5  c2  
hc  n   c3  c3  c3  c3  os  c6  c6  oh  c6  c3  oh  os  c6  oh  c6  oh  c   o   
hc  ha  hc  hc  hc  ha  h1  h1  hc  hc  hc  hc  h1  h1  h1  h1  ho  h1  h1  h1  
ho  h2  ho  h1  ho  o   c   c5  hc  c5  c5  c2  c5  c5  c2  hc  n   c3  c3  c3  
c3  os  c6  c6  oh  c6  c3  oh  os  c6  oh  c6  oh  c   o   hc  ha  hc  hc  hc  
ha  h1  h1  hc  hc  hc  hc  h1  h1  h1  h1  ho  h1  h1  h1  ho  h2  ho  h1  ho  
o   c   c5  hc  c5  c5  c2  c5  c5  c2  hc  n   c3  c3  c3  c3  os  c6  c6  oh  
c6  c3  oh  os  c6  oh  c6  oh  c   o   hc  ha  hc  hc  hc  ha  h1  h1  hc  hc  
hc  hc  h1  h1  h1  h1  ho  h1  h1  h1  ho  h2  ho  h1  ho  o   c   c5  hc  c5  
c5  c2  c5  c5  c2  hc  n   c3  c3  c3  c3  os  c6  c6  oh  c6  c3  oh  os  c6  
oh  c6  oh  c   o   hc  ha  hc  hc  hc  ha  h1  h1  hc  hc  hc  hc  h1  h1  h1  
h1  ho  h1  h1  h1  ho  h2  ho  h1  ho  o   c   c5  hc  c5  c5  c2  c5  c5  c2  
hc  n   c3  c3  c3  c3  os  c6  c6  oh  c6  c3  oh  os  c6  oh  c6  oh  c   o   
hc  ha  hc  hc  hc  ha  h1  h1  hc  hc  hc  hc  h1  h1  h1  h1  ho  h1  h1  h1  
ho  h2  ho  h1  ho  o   c   c5  hc  c5  c5  c2  c5  c5  c2  hc  n   c3  c3  c3  
c3  os  c6  c6  oh  c6  c3  oh  os  c6  oh  c6  oh  c   o   hc  ha  hc  hc  hc  
ha  h1  h1  hc  hc  hc  hc  h1  h1  h1  h1  ho  h1  h1  h1  ho  h2  ho  h1  ho  
o   c   c5  hc  c5  c5  c2  c5  c5  c2  hc  n   c3  c3  c3  c3  os  c6  c6  oh  
c6  c3  oh  os  c6  oh  c6  oh  c   o   hc  ha  hc  hc  hc  ha  h1  h1  hc  hc  
hc  hc  h1  h1  h1  h1  ho  h1  h1  h1  ho  h2  ho  h1  ho  c2  ha  ha  c2  ha  
ha  o   c   c5  hc  c5  c5  c2  c5  c5  c2  hc  n   c3  c3  c3  c3  os  c6  c6  
oh  c6  c3  oh  os  c6  oh  c6  oh  c   o   hc  ha  hc  hc  hc  ha  h1  h1  hc  
hc  hc  hc  h1  h1  h1  h1  ho  h1  h1  h1  ho  h2  ho  h1  ho  o   c   c5  hc  
c5  c5  c2  c5  c5  c2  hc  n   c3  c3  c3  c3  os  c6  c6  oh  c6  c3  oh  os  
c6  oh  c6  oh  c   o   hc  ha  hc  hc  hc  ha  h1  h1  hc  hc  hc  hc  h1  h1  
h1  h1  ho  h1  h1  h1  ho  h2  ho  h1  ho  o   c   c5  hc  c5  c5  c2  c5  c5  
c2  hc  n   c3  c3  c3  c3  os  c6  c6  oh  c6  c3  oh  os  c6  oh  c6  oh  c   
o   hc  ha  hc  hc  hc  ha  h1  h1  hc  hc  hc  hc  h1  h1  h1  h1  ho  h1  h1  
h1  ho  h2  ho  h1  ho  o   c   c5  hc  c5  c5  c2  c5  c5  c2  hc  n   c3  c3  
c3  c3  os  c6  c6  oh  c6  c3  oh  os  c6  oh  c6  oh  c   o   hc  ha  hc  hc  
hc  ha  h1  h1  hc  hc  hc  hc  h1  h1  h1  h1  ho  h1  h1  h1  ho  h2  ho  h1  
ho  o   c   c5  hc  c5  c5  c2  c5  c5  c2  hc  n   c3  c3  c3  c3  os  c6  c6  
oh  c6  c3  oh  os  c6  oh  c6  oh  c   o   hc  ha  hc  hc  hc  ha  h1  h1  hc  
hc  hc  hc  h1  h1  h1  h1  ho  h1  h1  h1  ho  h2  ho  h1  ho  o   c   c5  hc  
c5  c5  c2  c5  c5  c2  hc  n   c3  c3  c3  c3  os  c6  c6  oh  c6  c3  oh  os  
c6  oh  c6  oh  c   o   hc  ha  hc  hc  hc  ha  h1  h1  hc  hc  hc  hc  h1  h1  
h1  h1  ho  h1  h1  h1  ho  h2  ho  h1  ho  o   c   c5  hc  c5  c5  c2  c5  c5  
c2  hc  n   c3  c3  c3  c3  os  c6  c6  oh  c6  c3  oh  os  c6  oh  c6  oh  c   
o   hc  ha  hc  hc  hc  ha  h1  h1  hc  hc  hc  hc  h1  h1  h1  h1  ho  h1  h1  
h1  ho  h2  ho  h1  ho  o   c   c5  hc  c5  c5  c2  c5  c5  c2  hc  n   c3  c3  
c3  c3  os  c6  c6  oh  c6  c3  oh  os  c6  oh  c6  oh  c   o   hc  ha  hc  hc  
hc  ha  h1  h1  hc  hc  hc  hc  h1  h1  h1  h1  ho  h1  h1  h1  ho  h2  ho  h1  
ho  o   c   c5  hc  c5  c5  c2  c5  c5  c2  hc  n   c3  c3  c3  c3  os  c6  c6  
oh  c6  c3  oh  os  c6  oh  c6  oh  c   o   hc  ha  hc  hc  hc  ha  h1  h1  hc  
hc  hc  hc  h1  h1  h1  h1  ho  h1  h1  h1  ho  h2  ho  h1  ho  o   c   c5  hc  
c5  c5  c2  c5  c5  c2  hc  n   c3  c3  c3  c3  os  c6  c6  oh  c6  c3  oh  os  
c6  oh  c6  oh  c   o   hc  ha  hc  hc  hc  ha  h1  h1  hc  hc  hc  hc  h1  h1  
h1  h1  ho  h1  h1  h1  ho  h2  ho  h1  ho  c2  ha  ha  OW  HW  HW  OW  HW  HW  
OW  HW  HW  OW  HW  HW  OW  HW  HW  OW  HW  HW  OW  HW  HW  OW  HW  HW  OW  HW  
HW  OW  HW  HW  OW  HW  HW  OW  HW  HW  OW  HW  HW  OW  HW  HW  OW  HW  HW  OW  
HW  HW  OW  HW  HW  OW  HW  HW  OW  HW  HW  OW  HW  HW  OW  HW  HW  OW  HW  HW  
OW  HW  HW  OW  HW  HW  OW  HW  HW  OW  HW  HW  OW  HW  HW  OW  HW  HW  OW  HW  
HW  OW  HW  HW  OW  HW  HW  OW  HW  HW  OW  HW  HW  OW  HW  HW  OW  HW  HW  OW  
HW  HW  OW  HW  HW  OW  HW  HW  OW  HW  HW  OW  HW  HW  OW  HW  HW  OW  HW  HW  
OW  HW  HW  OW  HW  HW  OW  HW  HW  OW  HW  HW  OW  HW  HW  OW  HW  HW  OW  HW  
HW  OW  HW  HW  OW  HW  HW  OW  HW  HW  OW  HW  HW  OW  HW  HW  OW  HW  HW  OW  
HW  HW  OW  HW  HW  OW  HW  HW  OW  HW  HW  OW  HW  HW  OW  HW  HW  OW  HW  HW  
OW  HW  HW  OW  HW  HW  OW  HW  HW  OW  HW  HW  OW  HW  HW  OW  HW  HW  OW  HW  
HW  OW  HW  HW  OW  HW  HW  OW  HW  HW  OW  HW  HW  OW  HW  HW  OW  HW  HW  OW  
HW  HW  OW  HW  HW  OW  HW  HW  OW  HW  HW  OW  HW  HW  OW  HW  HW  OW  HW  HW  
OW  HW  HW  OW  HW  HW  OW  HW  HW  OW  HW  HW  OW  HW  HW  OW  HW  HW  OW  HW  
HW  OW  HW  HW  OW  HW  HW  OW  HW  HW  OW  HW  HW  OW  HW  HW  OW  HW  HW  OW  
HW  HW  OW  HW  HW  OW  HW  HW  OW  HW  HW  OW  HW  HW  OW  HW  HW  OW  HW  HW  
OW  HW  HW  OW  HW  HW  OW  HW  HW  OW  HW  HW  OW  HW  HW  OW  HW  HW  OW  HW  
HW  OW  HW  HW  OW  HW  HW  OW  HW  HW  OW  HW  HW  OW  HW  HW  OW  HW  HW  OW  
HW  HW  OW  HW  HW  OW  HW  HW  OW  HW  HW  OW  HW  HW  OW  HW  HW  OW  HW  HW  
OW  HW  HW  OW  HW  HW  OW  HW  HW  OW  HW  HW  OW  HW  HW  OW  HW  HW  OW  HW  
HW  OW  HW  HW  OW  HW  HW  OW  HW  HW  OW  HW  HW  OW  HW  HW  OW  HW  HW  OW  
HW  HW  OW  HW  HW  OW  HW  HW  OW  HW  HW  OW  HW  HW  OW  HW  HW  OW  HW  HW  
OW  HW  HW  OW  HW  HW  OW  HW  HW  OW  HW  HW  OW  HW  HW  OW  HW  HW  OW  HW  
HW  OW  HW  HW  OW  HW  HW  OW  HW  HW  OW  HW  HW  OW  HW  HW  OW  HW  HW  OW  
HW  HW  OW  HW  HW  OW  HW  HW  OW  HW  HW  OW  HW  HW  OW  HW  HW  OW  HW  HW  
OW  HW  HW  OW  HW  HW  OW  HW  HW  OW  HW  HW  OW  HW  HW  OW  HW  HW  OW  HW  
HW  OW  HW  HW  OW  HW  HW  OW  HW  HW  OW  HW  HW  OW  HW  HW  OW  HW  HW  OW  
HW  HW  OW  HW  HW  OW  HW  HW  OW  HW  HW  OW  HW  HW  OW  HW  HW  OW  HW  HW  
OW  HW  HW  OW  HW  HW  OW  HW  HW  OW  HW  HW  OW  HW  HW  OW  HW  HW  OW  HW  
HW  OW  HW  HW  OW  HW  HW  OW  HW  HW  OW  HW  HW  OW  HW  HW  OW  HW  HW  OW  
HW  HW  OW  HW  HW  OW  HW  HW  OW  HW  HW  OW  HW  HW  OW  HW  HW  OW  HW  HW  
OW  HW  HW  OW  HW  HW  OW  HW  HW  OW  HW  HW  OW  HW  HW  OW  HW  HW  OW  HW  
HW  OW  HW  HW  OW  HW  HW  OW  HW  HW  OW  HW  HW  OW  HW  HW  OW  HW  HW  OW  
HW  HW  OW  HW  HW  OW  HW  HW  OW  HW  HW  OW  HW  HW  OW  HW  HW  OW  HW  HW  
OW  HW  HW  OW  HW  HW  OW  HW  HW  OW  HW  HW  OW  HW  HW  OW  HW  HW  OW  HW  
HW  OW  HW  HW  OW  HW  HW  OW  HW  HW  OW  HW  HW  OW  HW  HW  OW  HW  HW  OW  
HW  HW  OW  HW  HW  OW  HW  HW  OW  HW  HW  OW  HW  HW  OW  HW  HW  OW  HW  HW  
OW  HW  HW  OW  HW  HW  OW  HW  HW  OW  HW  HW  OW  HW  HW  OW  HW  HW  OW  HW  
HW  OW  HW  HW  OW  HW  HW  OW  HW  HW  OW  HW  HW  OW  HW  HW  OW  HW  HW  OW  
HW  HW  OW  HW  HW  OW  HW  HW  OW  HW  HW  OW  HW  HW  OW  HW  HW  OW  HW  HW  
OW  HW  HW  OW  HW  HW  OW  HW  HW  OW  HW  HW  OW  HW  HW  OW  HW  HW  OW  HW  
HW  OW  HW  HW  OW  HW  HW  OW  HW  HW  OW  HW  HW  OW  HW  HW  OW  HW  HW  OW  
HW  HW  OW  HW  HW  OW  HW  HW  OW  HW  HW  OW  HW  HW  OW  HW  HW  OW  HW  HW  
OW  HW  HW  OW  HW  HW  OW  HW  HW  OW  HW  HW  OW  HW  HW  OW  HW  HW  OW  HW  
HW  OW  HW  HW  OW  HW  HW  OW  HW  HW  OW  HW  HW  OW  HW  HW  OW  HW  HW  OW  
HW  HW  OW  HW  HW  OW  HW  HW  OW  HW  HW  OW  HW  HW  OW  HW  HW  OW  HW  HW  
OW  HW  HW  OW  HW  HW  OW  HW  HW  OW  HW  HW  OW  HW  HW  OW  HW  HW  OW  HW  
HW  OW  HW  HW  OW  HW  HW  OW  HW  HW  OW  HW  HW  OW  HW  HW  OW  HW  HW  OW  
HW  HW  OW  HW  HW  OW  HW  HW  OW  HW  HW  OW  HW  HW  OW  HW  HW  OW  HW  HW  
OW  HW  HW  OW  HW  HW  OW  HW  HW  OW  HW  HW  OW  HW  HW  OW  HW  HW  OW  HW  
HW  OW  HW  HW  OW  HW  HW  OW  HW  HW  OW  HW  HW  OW  HW  HW  OW  HW  HW  OW  
HW  HW  OW  HW  HW  OW  HW  HW  OW  HW  HW  OW  HW  HW  OW  HW  HW  OW  HW  HW  
OW  HW  HW  OW  HW  HW  OW  HW  HW  OW  HW  HW  OW  HW  HW  OW  HW  HW  OW  HW  
HW  OW  HW  HW  OW  HW  HW  OW  HW  HW  OW  HW  HW  OW  HW  HW  OW  HW  HW  OW  
HW  HW  OW  HW  HW  OW  HW  HW  OW  HW  HW  OW  HW  HW  OW  HW  HW  OW  HW  HW  
OW  HW  HW  OW  HW  HW  OW  HW  HW  OW  HW  HW  OW  HW  HW  OW  HW  HW  OW  HW  
HW  OW  HW  HW  OW  HW  HW  OW  HW  HW  OW  HW  HW  OW  HW  HW  OW  HW  HW  OW  
HW  HW  OW  HW  HW  OW  HW  HW  OW  HW  HW  OW  HW  HW  OW  HW  HW  OW  HW  HW  
OW  HW  HW  OW  HW  HW  OW  HW  HW  OW  HW  HW  OW  HW  HW  OW  HW  HW  OW  HW  
HW  OW  HW  HW  OW  HW  HW  OW  HW  HW  OW  HW  HW  OW  HW  HW  OW  HW  HW  OW  
HW  HW  OW  HW  HW  OW  HW  HW  OW  HW  HW  OW  HW  HW  OW  HW  HW  OW  HW  HW  
OW  HW  HW  OW  HW  HW  OW  HW  HW  OW  HW  HW  OW  HW  HW  OW  HW  HW  OW  HW  
HW  OW  HW  HW  OW  HW  HW  OW  HW  HW  OW  HW  HW  OW  HW  HW  OW  HW  HW  OW  
HW  HW  OW  HW  HW  OW  HW  HW  OW  HW  HW  OW  HW  HW  OW  HW  HW  OW  HW  HW  
OW  HW  HW  OW  HW  HW  OW  HW  HW  OW  HW  HW  OW  HW  HW  OW  HW  HW  OW  HW  
HW  OW  HW  HW  OW  HW  HW  OW  HW  HW  OW  HW  HW  OW  HW  HW  OW  HW  HW  OW  
HW  HW  OW  HW  HW  OW  HW  HW  OW  HW  HW  OW  HW  HW  OW  HW  HW  OW  HW  HW  
OW  HW  HW  OW  HW  HW  OW  HW  HW  OW  HW  HW  OW  HW  HW  OW  HW  HW  OW  HW  
HW  OW  HW  HW  OW  HW  HW  OW  HW  HW  OW  HW  HW  OW  HW  HW  OW  HW  HW  OW  
HW  HW  OW  HW  HW  OW  HW  HW  OW  HW  HW  OW  HW  HW  OW  HW  HW  OW  HW  HW  
OW  HW  HW  OW  HW  HW  OW  HW  HW  OW  HW  HW  OW  HW  HW  OW  HW  HW  OW  HW  
HW  OW  HW  HW  OW  HW  HW  OW  HW  HW  OW  HW  HW  OW  HW  HW  OW  HW  HW  OW  
HW  HW  OW  HW  HW  OW  HW  HW  OW  HW  HW  OW  HW  HW  OW  HW  HW  OW  HW  HW  
OW  HW  HW  OW  HW  HW  OW  HW  HW  OW  HW  HW  OW  HW  HW  OW  HW  HW  OW  HW  
HW  OW  HW  HW  OW  HW  HW  OW  HW  HW  OW  HW  HW  OW  HW  HW  OW  HW  HW  OW  
HW  HW  OW  HW  HW  OW  HW  HW  OW  HW  HW  OW  HW  HW  OW  HW  HW  OW  HW  HW  
OW  HW  HW  OW  HW  HW  OW  HW  HW  OW  HW  HW  OW  HW  HW  OW  HW  HW  OW  HW  
HW  OW  HW  HW  OW  HW  HW  OW  HW  HW  OW  HW  HW  OW  HW  HW  OW  HW  HW  OW  
HW  HW  OW  HW  HW  OW  HW  HW  OW  HW  HW  OW  HW  HW  OW  HW  HW  OW  HW  HW  
OW  HW  HW  OW  HW  HW  OW  HW  HW  OW  HW  HW  OW  HW  HW  OW  HW  HW  OW  HW  
HW  OW  HW  HW  OW  HW  HW  OW  HW  HW  OW  HW  HW  OW  HW  HW  OW  HW  HW  OW  
HW  HW  OW  HW  HW  OW  HW  HW  OW  HW  HW  OW  HW  HW  OW  HW  HW  OW  HW  HW  
OW  HW  HW  OW  HW  HW  OW  HW  HW  OW  HW  HW  OW  HW  HW  OW  HW  HW  OW  HW  
HW  OW  HW  HW  OW  HW  HW  OW  HW  HW  OW  HW  HW  OW  HW  HW  OW  HW  HW  OW  
HW  HW  OW  HW  HW  OW  HW  HW  OW  HW  HW  OW  HW  HW  OW  HW  HW  OW  HW  HW  
OW  HW  HW  OW  HW  HW  OW  HW  HW  OW  HW  HW  OW  HW  HW  OW  HW  HW  OW  HW  
HW  OW  HW  HW  OW  HW  HW  OW  HW  HW  OW  HW  HW  OW  HW  HW  OW  HW  HW  OW  
HW  HW  OW  HW  HW  OW  HW  HW  OW  HW  HW  OW  HW  HW  OW  HW  HW  OW  HW  HW  
OW  HW  HW  OW  HW  HW  OW  HW  HW  OW  HW  HW  OW  HW  HW  OW  HW  HW  OW  HW  
HW  OW  HW  HW  OW  HW  HW  OW  HW  HW  OW  HW  HW  OW  HW  HW  OW  HW  HW  OW  
HW  HW  OW  HW  HW  OW  HW  HW  OW  HW  HW  OW  HW  HW  OW  HW  HW  OW  HW  HW  
OW  HW  HW  OW  HW  HW  OW  HW  HW  OW  HW  HW  OW  HW  HW  OW  HW  HW  OW  HW  
HW  OW  HW  HW  OW  HW  HW  OW  HW  HW  OW  HW  HW  OW  HW  HW  OW  HW  HW  OW  
HW  HW  OW  HW  HW  OW  HW  HW  OW  HW  HW  OW  HW  HW  OW  HW  HW  OW  HW  HW  
OW  HW  HW  OW  HW  HW  OW  HW  HW  OW  HW  HW  OW  HW  HW  OW  HW  HW  OW  HW  
HW  OW  HW  HW  OW  HW  HW  OW  HW  HW  OW  HW  HW  OW  HW  HW  OW  HW  HW  OW  
HW  HW  OW  HW  HW  OW  HW  HW  OW  HW  HW  OW  HW  HW  OW  HW  HW  OW  HW  HW  
OW  HW  HW  OW  HW  HW  OW  HW  HW  OW  HW  HW  OW  HW  HW  OW  HW  HW  OW  HW  
HW  OW  HW  HW  OW  HW  HW  OW  HW  HW  OW  HW  HW  OW  HW  HW  OW  HW  HW  OW  
HW  HW  OW  HW  HW  OW  HW  HW  OW  HW  HW  OW  HW  HW  OW  HW  HW  OW  HW  HW  
OW  HW  HW  OW  HW  HW  OW  HW  HW  OW  HW  HW  OW  HW  HW  OW  HW  HW  OW  HW  
HW  OW  HW  HW  OW  HW  HW  OW  HW  HW  OW  HW  HW  OW  HW  HW  OW  HW  HW  OW  
HW  HW  OW  HW  HW  OW  HW  HW  OW  HW  HW  OW  HW  HW  OW  HW  HW  OW  HW  HW  
OW  HW  HW  OW  HW  HW  OW  HW  HW  OW  HW  HW  OW  HW  HW  OW  HW  HW  OW  HW  
HW  OW  HW  HW  OW  HW  HW  OW  HW  HW  OW  HW  HW  OW  HW  HW  OW  HW  HW  OW  
HW  HW  OW  HW  HW  OW  HW  HW  OW  HW  HW  OW  HW  HW  OW  HW  HW  OW  HW  HW  
OW  HW  HW  OW  HW  HW  OW  HW  HW  OW  HW  HW  OW  HW  HW  OW  HW  HW  OW  HW  
HW  OW  HW  HW  OW  HW  HW  OW  HW  HW  OW  HW  HW  OW  HW  HW  OW  HW  HW  OW  
HW  HW  OW  HW  HW  OW  HW  HW  OW  HW  HW  OW  HW  HW  OW  HW  HW  OW  HW  HW  
OW  HW  HW  OW  HW  HW  OW  HW  HW  OW  HW  HW  OW  HW  HW  OW  HW  HW  OW  HW  
HW  OW  HW  HW  OW  HW  HW  OW  HW  HW  OW  HW  HW  OW  HW  HW  OW  HW  HW  OW  
HW  HW  OW  HW  HW  OW  HW  HW  OW  HW  HW  OW  HW  HW  OW  HW  HW  OW  HW  HW  
OW  HW  HW  OW  HW  HW  OW  HW  HW  OW  HW  HW  OW  HW  HW  OW  HW  HW  OW  HW  
HW  OW  HW  HW  OW  HW  HW  OW  HW  HW  OW  HW  HW  OW  HW  HW  OW  HW  HW  OW  
HW  HW  OW  HW  HW  OW  HW  HW  OW  HW  HW  OW  HW  HW  OW  HW  HW  OW  HW  HW  
OW  HW  HW  OW  HW  HW  OW  HW  HW  OW  HW  HW  OW  HW  HW  OW  HW  HW  OW  HW  
HW  OW  HW  HW  OW  HW  HW  OW  HW  HW  OW  HW  HW  OW  HW  HW  OW  HW  HW  OW  
HW  HW  OW  HW  HW  OW  HW  HW  OW  HW  HW  OW  HW  HW  OW  HW  HW  OW  HW  HW  
OW  HW  HW  OW  HW  HW  OW  HW  HW  OW  HW  HW  OW  HW  HW  OW  HW  HW  OW  HW  
HW  OW  HW  HW  OW  HW  HW  OW  HW  HW  OW  HW  HW  OW  HW  HW  OW  HW  HW  OW  
HW  HW  OW  HW  HW  OW  HW  HW  OW  HW  HW  OW  HW  HW  OW  HW  HW  OW  HW  HW  
OW  HW  HW  OW  HW  HW  OW  HW  HW  OW  HW  HW  OW  HW  HW  OW  HW  HW  OW  HW  
HW  OW  HW  HW  OW  HW  HW  OW  HW  HW  OW  HW  HW  OW  HW  HW  OW  HW  HW  OW  
HW  HW  OW  HW  HW  OW  HW  HW  OW  HW  HW  OW  HW  HW  OW  HW  HW  OW  HW  HW  
OW  HW  HW  OW  HW  HW  OW  HW  HW  OW  HW  HW  OW  HW  HW  OW  HW  HW  OW  HW  
HW  OW  HW  HW  OW  HW  HW  OW  HW  HW  OW  HW  HW  OW  HW  HW  OW  HW  HW  OW  
HW  HW  OW  HW  HW  OW  HW  HW  OW  HW  HW  OW  HW  HW  OW  HW  HW  OW  HW  HW  
OW  HW  HW  OW  HW  HW  OW  HW  HW  OW  HW  HW  OW  HW  HW  OW  HW  HW  OW  HW  
HW  OW  HW  HW  OW  HW  HW  OW  HW  HW  OW  HW  HW  OW  HW  HW  OW  HW  HW  OW  
HW  HW  OW  HW  HW  OW  HW  HW  OW  HW  HW  OW  HW  HW  OW  HW  HW  OW  HW  HW  
OW  HW  HW  OW  HW  HW  OW  HW  HW  OW  HW  HW  OW  HW  HW  OW  HW  HW  OW  HW  
HW  OW  HW  HW  OW  HW  HW  OW  HW  HW  OW  HW  HW  OW  HW  HW  OW  HW  HW  OW  
HW  HW  OW  HW  HW  OW  HW  HW  OW  HW  HW  OW  HW  HW  OW  HW  HW  OW  HW  HW  
OW  HW  HW  OW  HW  HW  OW  HW  HW  OW  HW  HW  OW  HW  HW  OW  HW  HW  OW  HW  
HW  OW  HW  HW  OW  HW  HW  OW  HW  HW  OW  HW  HW  OW  HW  HW  OW  HW  HW  OW  
HW  HW  OW  HW  HW  OW  HW  HW  OW  HW  HW  OW  HW  HW  OW  HW  HW  OW  HW  HW  
OW  HW  HW  OW  HW  HW  OW  HW  HW  OW  HW  HW  OW  HW  HW  OW  HW  HW  OW  HW  
HW  OW  HW  HW  OW  HW  HW  OW  HW  HW  OW  HW  HW  OW  HW  HW  OW  HW  HW  OW  
HW  HW  OW  HW  HW  OW  HW  HW  OW  HW  HW  OW  HW  HW  OW  HW  HW  OW  HW  HW  
OW  HW  HW  OW  HW  HW  OW  HW  HW  OW  HW  HW  OW  HW  HW  OW  HW  HW  OW  HW  
HW  OW  HW  HW  OW  HW  HW  OW  HW  HW  OW  HW  HW  OW  HW  HW  OW  HW  HW  OW  
HW  HW  OW  HW  HW  OW  HW  HW  OW  HW  HW  OW  HW  HW  OW  HW  HW  OW  HW  HW  
OW  HW  HW  OW  HW  HW  OW  HW  HW  OW  HW  HW  OW  HW  HW  OW  HW  HW  OW  HW  
HW  OW  HW  HW  OW  HW  HW  OW  HW  HW  OW  HW  HW  OW  HW  HW  OW  HW  HW  OW  
HW  HW  OW  HW  HW  OW  HW  HW  OW  HW  HW  OW  HW  HW  OW  HW  HW  OW  HW  HW  
OW  HW  HW  OW  HW  HW  OW  HW  HW  OW  HW  HW  OW  HW  HW  OW  HW  HW  OW  HW  
HW  OW  HW  HW  OW  HW  HW  OW  HW  HW  OW  HW  HW  OW  HW  HW  OW  HW  HW  OW  
HW  HW  OW  HW  HW  OW  HW  HW  OW  HW  HW  OW  HW  HW  OW  HW  HW  OW  HW  HW  
OW  HW  HW  OW  HW  HW  OW  HW  HW  OW  HW  HW  OW  HW  HW  OW  HW  HW  OW  HW  
HW  OW  HW  HW  OW  HW  HW  OW  HW  HW  OW  HW  HW  OW  HW  HW  OW  HW  HW  OW  
HW  HW  OW  HW  HW  OW  HW  HW  OW  HW  HW  OW  HW  HW  OW  HW  HW  OW  HW  HW  
OW  HW  HW  OW  HW  HW  OW  HW  HW  OW  HW  HW  OW  HW  HW  OW  HW  HW  OW  HW  
HW  OW  HW  HW  OW  HW  HW  OW  HW  HW  OW  HW  HW  OW  HW  HW  OW  HW  HW  OW  
HW  HW  OW  HW  HW  OW  HW  HW  OW  HW  HW  OW  HW  HW  OW  HW  HW  OW  HW  HW  
OW  HW  HW  OW  HW  HW  OW  HW  HW  OW  HW  HW  OW  HW  HW  OW  HW  HW  OW  HW  
HW  OW  HW  HW  OW  HW  HW  OW  HW  HW  OW  HW  HW  OW  HW  HW  OW  HW  HW  OW  
HW  HW  OW  HW  HW  OW  HW  HW  OW  HW  HW  OW  HW  HW  OW  HW  HW  OW  HW  HW  
OW  HW  HW  OW  HW  HW  OW  HW  HW  OW  HW  HW  OW  HW  HW  OW  HW  HW  OW  HW  
HW  OW  HW  HW  OW  HW  HW  OW  HW  HW  OW  HW  HW  OW  HW  HW  OW  HW  HW  OW  
HW  HW  OW  HW  HW  OW  HW  HW  OW  HW  HW  OW  HW  HW  OW  HW  HW  OW  HW  HW  
OW  HW  HW  OW  HW  HW  OW  HW  HW  OW  HW  HW  OW  HW  HW  OW  HW  HW  OW  HW  
HW  OW  HW  HW  OW  HW  HW  OW  HW  HW  OW  HW  HW  OW  HW  HW  OW  HW  HW  OW  
HW  HW  OW  HW  HW  OW  HW  HW  OW  HW  HW  OW  HW  HW  OW  HW  HW  OW  HW  HW  
OW  HW  HW  OW  HW  HW  OW  HW  HW  OW  HW  HW  OW  HW  HW  OW  HW  HW  OW  HW  
HW  OW  HW  HW  OW  HW  HW  OW  HW  HW  OW  HW  HW  OW  HW  HW  OW  HW  HW  OW  
HW  HW  OW  HW  HW  OW  HW  HW  OW  HW  HW  OW  HW  HW  OW  HW  HW  OW  HW  HW  
OW  HW  HW  OW  HW  HW  OW  HW  HW  OW  HW  HW  OW  HW  HW  OW  HW  HW  OW  HW  
HW  OW  HW  HW  OW  HW  HW  OW  HW  HW  OW  HW  HW  OW  HW  HW  OW  HW  HW  OW  
HW  HW  OW  HW  HW  OW  HW  HW  OW  HW  HW  OW  HW  HW  OW  HW  HW  OW  HW  HW  
OW  HW  HW  OW  HW  HW  OW  HW  HW  OW  HW  HW  OW  HW  HW  OW  HW  HW  OW  HW  
HW  OW  HW  HW  OW  HW  HW  OW  HW  HW  OW  HW  HW  OW  HW  HW  OW  HW  HW  OW  
HW  HW  OW  HW  HW  OW  HW  HW  OW  HW  HW  OW  HW  HW  OW  HW  HW  OW  HW  HW  
OW  HW  HW  OW  HW  HW  OW  HW  HW  OW  HW  HW  OW  HW  HW  OW  HW  HW  OW  HW  
HW  OW  HW  HW  OW  HW  HW  OW  HW  HW  OW  HW  HW  OW  HW  HW  OW  HW  HW  OW  
HW  HW  OW  HW  HW  OW  HW  HW  OW  HW  HW  OW  HW  HW  OW  HW  HW  OW  HW  HW  
OW  HW  HW  OW  HW  HW  OW  HW  HW  OW  HW  HW  OW  HW  HW  OW  HW  HW  OW  HW  
HW  OW  HW  HW  OW  HW  HW  OW  HW  HW  OW  HW  HW  OW  HW  HW  OW  HW  HW  OW  
HW  HW  OW  HW  HW  OW  HW  HW  OW  HW  HW  OW  HW  HW  OW  HW  HW  OW  HW  HW  
OW  HW  HW  OW  HW  HW  OW  HW  HW  OW  HW  HW  OW  HW  HW  OW  HW  HW  OW  HW  
HW  OW  HW  HW  OW  HW  HW  OW  HW  HW  OW  HW  HW  OW  HW  HW  OW  HW  HW  OW  
HW  HW  OW  HW  HW  OW  HW  HW  OW  HW  HW  OW  HW  HW  OW  HW  HW  OW  HW  HW  
OW  HW  HW  OW  HW  HW  OW  HW  HW  OW  HW  HW  OW  HW  HW  OW  HW  HW  OW  HW  
HW  OW  HW  HW  OW  HW  HW  OW  HW  HW  OW  HW  HW  OW  HW  HW  OW  HW  HW  OW  
HW  HW  OW  HW  HW  OW  HW  HW  OW  HW  HW  OW  HW  HW  OW  HW  HW  OW  HW  HW  
OW  HW  HW  OW  HW  HW  OW  HW  HW  OW  HW  HW  OW  HW  HW  OW  HW  HW  OW  HW  
HW  OW  HW  HW  OW  HW  HW  OW  HW  HW  OW  HW  HW  OW  HW  HW  OW  HW  HW  OW  
HW  HW  OW  HW  HW  OW  HW  HW  OW  HW  HW  OW  HW  HW  OW  HW  HW  OW  HW  HW  
OW  HW  HW  OW  HW  HW  OW  HW  HW  OW  HW  HW  OW  HW  HW  OW  HW  HW  OW  HW  
HW  OW  HW  HW  OW  HW  HW  OW  HW  HW  OW  HW  HW  OW  HW  HW  OW  HW  HW  OW  
HW  HW  OW  HW  HW  OW  HW  HW  OW  HW  HW  OW  HW  HW  OW  HW  HW  OW  HW  HW  
OW  HW  HW  OW  HW  HW  OW  HW  HW  OW  HW  HW  OW  HW  HW  OW  HW  HW  OW  HW  
HW  OW  HW  HW  OW  HW  HW  OW  HW  HW  OW  HW  HW  OW  HW  HW  OW  HW  HW  OW  
HW  HW  OW  HW  HW  OW  HW  HW  OW  HW  HW  OW  HW  HW  OW  HW  HW  OW  HW  HW  
OW  HW  HW  OW  HW  HW  OW  HW  HW  OW  HW  HW  OW  HW  HW  OW  HW  HW  OW  HW  
HW  OW  HW  HW  OW  HW  HW  OW  HW  HW  OW  HW  HW  OW  HW  HW  OW  HW  HW  OW  
HW  HW  OW  HW  HW  OW  HW  HW  OW  HW  HW  OW  HW  HW  OW  HW  HW  OW  HW  HW  
OW  HW  HW  OW  HW  HW  OW  HW  HW  OW  HW  HW  OW  HW  HW  OW  HW  HW  OW  HW  
HW  OW  HW  HW  OW  HW  HW  OW  HW  HW  OW  HW  HW  OW  HW  HW  OW  HW  HW  OW  
HW  HW  OW  HW  HW  OW  HW  HW  OW  HW  HW  OW  HW  HW  OW  HW  HW  OW  HW  HW  
OW  HW  HW  OW  HW  HW  OW  HW  HW  OW  HW  HW  OW  HW  HW  OW  HW  HW  OW  HW  
HW  OW  HW  HW  OW  HW  HW  OW  HW  HW  OW  HW  HW  OW  HW  HW  OW  HW  HW  OW  
HW  HW  OW  HW  HW  OW  HW  HW  OW  HW  HW  OW  HW  HW  OW  HW  HW  OW  HW  HW  
OW  HW  HW  OW  HW  HW  OW  HW  HW  OW  HW  HW  OW  HW  HW  OW  HW  HW  OW  HW  
HW  OW  HW  HW  OW  HW  HW  OW  HW  HW  OW  HW  HW  OW  HW  HW  OW  HW  HW  OW  
HW  HW  OW  HW  HW  OW  HW  HW  OW  HW  HW  OW  HW  HW  OW  HW  HW  OW  HW  HW  
OW  HW  HW  OW  HW  HW  OW  HW  HW  OW  HW  HW  OW  HW  HW  OW  HW  HW  OW  HW  
HW  OW  HW  HW  OW  HW  HW  OW  HW  HW  OW  HW  HW  OW  HW  HW  OW  HW  HW  OW  
HW  HW  OW  HW  HW  OW  HW  HW  OW  HW  HW  OW  HW  HW  OW  HW  HW  OW  HW  HW  
OW  HW  HW  OW  HW  HW  OW  HW  HW  OW  HW  HW  OW  HW  HW  OW  HW  HW  OW  HW  
HW  OW  HW  HW  OW  HW  HW  OW  HW  HW  OW  HW  HW  OW  HW  HW  OW  HW  HW  OW  
HW  HW  OW  HW  HW  OW  HW  HW  OW  HW  HW  OW  HW  HW  OW  HW  HW  OW  HW  HW  
OW  HW  HW  OW  HW  HW  OW  HW  HW  OW  HW  HW  OW  HW  HW  OW  HW  HW  OW  HW  
HW  OW  HW  HW  OW  HW  HW  OW  HW  HW  OW  HW  HW  OW  HW  HW  OW  HW  HW  OW  
HW  HW  OW  HW  HW  OW  HW  HW  OW  HW  HW  OW  HW  HW  OW  HW  HW  OW  HW  HW  
OW  HW  HW  OW  HW  HW  OW  HW  HW  OW  HW  HW  OW  HW  HW  OW  HW  HW  OW  HW  
HW  OW  HW  HW  OW  HW  HW  OW  HW  HW  OW  HW  HW  OW  HW  HW  OW  HW  HW  OW  
HW  HW  OW  HW  HW  OW  HW  HW  OW  HW  HW  OW  HW  HW  OW  HW  HW  OW  HW  HW  
OW  HW  HW  OW  HW  HW  OW  HW  HW  OW  HW  HW  OW  HW  HW  OW  HW  HW  OW  HW  
HW  OW  HW  HW  OW  HW  HW  OW  HW  HW  OW  HW  HW  OW  HW  HW  OW  HW  HW  OW  
HW  HW  OW  HW  HW  OW  HW  HW  OW  HW  HW  OW  HW  HW  OW  HW  HW  OW  HW  HW  
OW  HW  HW  OW  HW  HW  OW  HW  HW  OW  HW  HW  OW  HW  HW  OW  HW  HW  OW  HW  
HW  OW  HW  HW  OW  HW  HW  OW  HW  HW  OW  HW  HW  OW  HW  HW  OW  HW  HW  OW  
HW  HW  OW  HW  HW  OW  HW  HW  OW  HW  HW  OW  HW  HW  OW  HW  HW  OW  HW  HW  
OW  HW  HW  OW  HW  HW  OW  HW  HW  OW  HW  HW  OW  HW  HW  OW  HW  HW  OW  HW  
HW  OW  HW  HW  OW  HW  HW  OW  HW  HW  OW  HW  HW  OW  HW  HW  OW  HW  HW  OW  
HW  HW  OW  HW  HW  OW  HW  HW  OW  HW  HW  OW  HW  HW  OW  HW  HW  OW  HW  HW  
OW  HW  HW  OW  HW  HW  OW  HW  HW  OW  HW  HW  OW  HW  HW  OW  HW  HW  OW  HW  
HW  OW  HW  HW  OW  HW  HW  OW  HW  HW  OW  HW  HW  OW  HW  HW  OW  HW  HW  OW  
HW  HW  OW  HW  HW  OW  HW  HW  OW  HW  HW  OW  HW  HW  OW  HW  HW  OW  HW  HW  
OW  HW  HW  OW  HW  HW  OW  HW  HW  OW  HW  HW  OW  HW  HW  OW  HW  HW  OW  HW  
HW  OW  HW  HW  OW  HW  HW  OW  HW  HW  OW  HW  HW  OW  HW  HW  OW  HW  HW  OW  
HW  HW  OW  HW  HW  OW  HW  HW  OW  HW  HW  OW  HW  HW  OW  HW  HW  OW  HW  HW  
OW  HW  HW  OW  HW  HW  OW  HW  HW  OW  HW  HW  OW  HW  HW  OW  HW  HW  OW  HW  
HW  OW  HW  HW  OW  HW  HW  OW  HW  HW  OW  HW  HW  OW  HW  HW  OW  HW  HW  OW  
HW  HW  OW  HW  HW  OW  HW  HW  OW  HW  HW  OW  HW  HW  OW  HW  HW  OW  HW  HW  
OW  HW  HW  OW  HW  HW  OW  HW  HW  OW  HW  HW  OW  HW  HW  OW  HW  HW  OW  HW  
HW  OW  HW  HW  OW  HW  HW  OW  HW  HW  OW  HW  HW  OW  HW  HW  OW  HW  HW  OW  
HW  HW  OW  HW  HW  OW  HW  HW  OW  HW  HW  OW  HW  HW  OW  HW  HW  OW  HW  HW  
OW  HW  HW  OW  HW  HW  OW  HW  HW  OW  HW  HW  OW  HW  HW  OW  HW  HW  OW  HW  
HW  OW  HW  HW  OW  HW  HW  OW  HW  HW  OW  HW  HW  OW  HW  HW  OW  HW  HW  OW  
HW  HW  OW  HW  HW  OW  HW  HW  OW  HW  HW  OW  HW  HW  OW  HW  HW  OW  HW  HW  
OW  HW  HW  OW  HW  HW  OW  HW  HW  OW  HW  HW  OW  HW  HW  OW  HW  HW  OW  HW  
HW  OW  HW  HW  OW  HW  HW  OW  HW  HW  OW  HW  HW  OW  HW  HW  OW  HW  HW  OW  
HW  HW  OW  HW  HW  OW  HW  HW  OW  HW  HW  OW  HW  HW  OW  HW  HW  OW  HW  HW  
OW  HW  HW  OW  HW  HW  OW  HW  HW  OW  HW  HW  OW  HW  HW  OW  HW  HW  OW  HW  
HW  OW  HW  HW  OW  HW  HW  OW  HW  HW  OW  HW  HW  OW  HW  HW  OW  HW  HW  OW  
HW  HW  OW  HW  HW  OW  HW  HW  OW  HW  HW  OW  HW  HW  OW  HW  HW  OW  HW  HW  
OW  HW  HW  OW  HW  HW  OW  HW  HW  OW  HW  HW  OW  HW  HW  OW  HW  HW  OW  HW  
HW  OW  HW  HW  OW  HW  HW  OW  HW  HW  OW  HW  HW  OW  HW  HW  OW  HW  HW  OW  
HW  HW  OW  HW  HW  OW  HW  HW  OW  HW  HW  OW  HW  HW  OW  HW  HW  OW  HW  HW  
OW  HW  HW  OW  HW  HW  OW  HW  HW  OW  HW  HW  OW  HW  HW  OW  HW  HW  OW  HW  
HW  OW  HW  HW  OW  HW  HW  OW  HW  HW  OW  HW  HW  OW  HW  HW  OW  HW  HW  OW  
HW  HW  OW  HW  HW  OW  HW  HW  OW  HW  HW  OW  HW  HW  OW  HW  HW  OW  HW  HW  
OW  HW  HW  OW  HW  HW  OW  HW  HW  OW  HW  HW  OW  HW  HW  OW  HW  HW  OW  HW  
HW  OW  HW  HW  OW  HW  HW  OW  HW  HW  OW  HW  HW  OW  HW  HW  OW  HW  HW  OW  
HW  HW  OW  HW  HW  OW  HW  HW  OW  HW  HW  OW  HW  HW  OW  HW  HW  OW  HW  HW  
OW  HW  HW  OW  HW  HW  OW  HW  HW  OW  HW  HW  OW  HW  HW  OW  HW  HW  OW  HW  
HW  OW  HW  HW  OW  HW  HW  OW  HW  HW  OW  HW  HW  OW  HW  HW  OW  HW  HW  OW  
HW  HW  OW  HW  HW  OW  HW  HW  OW  HW  HW  OW  HW  HW  OW  HW  HW  OW  HW  HW  
OW  HW  HW  OW  HW  HW  OW  HW  HW  OW  HW  HW  OW  HW  HW  OW  HW  HW  OW  HW  
HW  OW  HW  HW  OW  HW  HW  OW  HW  HW  OW  HW  HW  OW  HW  HW  OW  HW  HW  OW  
HW  HW  OW  HW  HW  OW  HW  HW  OW  HW  HW  OW  HW  HW  OW  HW  HW  OW  HW  HW  
OW  HW  HW  OW  HW  HW  OW  HW  HW  OW  HW  HW  OW  HW  HW  OW  HW  HW  OW  HW  
HW  OW  HW  HW  OW  HW  HW  OW  HW  HW  OW  HW  HW  OW  HW  HW  OW  HW  HW  OW  
HW  HW  OW  HW  HW  OW  HW  HW  OW  HW  HW  OW  HW  HW  OW  HW  HW  OW  HW  HW  
OW  HW  HW  OW  HW  HW  OW  HW  HW  OW  HW  HW  OW  HW  HW  OW  HW  HW  OW  HW  
HW  OW  HW  HW  OW  HW  HW  OW  HW  HW  OW  HW  HW  OW  HW  HW  OW  HW  HW  OW  
HW  HW  OW  HW  HW  OW  HW  HW  OW  HW  HW  OW  HW  HW  OW  HW  HW  OW  HW  HW  
OW  HW  HW  OW  HW  HW  OW  HW  HW  OW  HW  HW  OW  HW  HW  OW  HW  HW  OW  HW  
HW  OW  HW  HW  OW  HW  HW  OW  HW  HW  OW  HW  HW  OW  HW  HW  OW  HW  HW  OW  
HW  HW  OW  HW  HW  OW  HW  HW  OW  HW  HW  OW  HW  HW  OW  HW  HW  OW  HW  HW  
OW  HW  HW  OW  HW  HW  OW  HW  HW  OW  HW  HW  OW  HW  HW  OW  HW  HW  OW  HW  
HW  OW  HW  HW  OW  HW  HW  OW  HW  HW  OW  HW  HW  OW  HW  HW  OW  HW  HW  OW  
HW  HW  OW  HW  HW  OW  HW  HW  OW  HW  HW  OW  HW  HW  OW  HW  HW  OW  HW  HW  
OW  HW  HW  OW  HW  HW  OW  HW  HW  OW  HW  HW  OW  HW  HW  OW  HW  HW  OW  HW  
HW  OW  HW  HW  OW  HW  HW  OW  HW  HW  OW  HW  HW  OW  HW  HW  OW  HW  HW  OW  
HW  HW  OW  HW  HW  OW  HW  HW  OW  HW  HW  OW  HW  HW  OW  HW  HW  OW  HW  HW  
OW  HW  HW  OW  HW  HW  OW  HW  HW  OW  HW  HW  OW  HW  HW  OW  HW  HW  OW  HW  
HW  OW  HW  HW  OW  HW  HW  OW  HW  HW  OW  HW  HW  OW  HW  HW  OW  HW  HW  OW  
HW  HW  OW  HW  HW  OW  HW  HW  OW  HW  HW  OW  HW  HW  OW  HW  HW  OW  HW  HW  
OW  HW  HW  OW  HW  HW  OW  HW  HW  OW  HW  HW  OW  HW  HW  OW  HW  HW  OW  HW  
HW  OW  HW  HW  OW  HW  HW  OW  HW  HW  OW  HW  HW  OW  HW  HW  OW  HW  HW  OW  
HW  HW  OW  HW  HW  OW  HW  HW  OW  HW  HW  OW  HW  HW  OW  HW  HW  OW  HW  HW  
OW  HW  HW  OW  HW  HW  OW  HW  HW  OW  HW  HW  OW  HW  HW  OW  HW  HW  OW  HW  
HW  OW  HW  HW  OW  HW  HW  OW  HW  HW  OW  HW  HW  OW  HW  HW  OW  HW  HW  OW  
HW  HW  OW  HW  HW  OW  HW  HW  OW  HW  HW  OW  HW  HW  OW  HW  HW  OW  HW  HW  
OW  HW  HW  OW  HW  HW  OW  HW  HW  OW  HW  HW  OW  HW  HW  OW  HW  HW  OW  HW  
HW  OW  HW  HW  OW  HW  HW  OW  HW  HW  OW  HW  HW  OW  HW  HW  OW  HW  HW  OW  
HW  HW  OW  HW  HW  OW  HW  HW  OW  HW  HW  OW  HW  HW  OW  HW  HW  OW  HW  HW  
OW  HW  HW  OW  HW  HW  OW  HW  HW  OW  HW  HW  OW  HW  HW  OW  HW  HW  OW  HW  
HW  OW  HW  HW  OW  HW  HW  OW  HW  HW  OW  HW  HW  OW  HW  HW  OW  HW  HW  OW  
HW  HW  OW  HW  HW  OW  HW  HW  OW  HW  HW  OW  HW  HW  OW  HW  HW  OW  HW  HW  
OW  HW  HW  OW  HW  HW  OW  HW  HW  OW  HW  HW  OW  HW  HW  OW  HW  HW  OW  HW  
HW  OW  HW  HW  OW  HW  HW  OW  HW  HW  OW  HW  HW  OW  HW  HW  OW  HW  HW  OW  
HW  HW  OW  HW  HW  OW  HW  HW  OW  HW  HW  OW  HW  HW  OW  HW  HW  OW  HW  HW  
OW  HW  HW  OW  HW  HW  OW  HW  HW  OW  HW  HW  OW  HW  HW  OW  HW  HW  OW  HW  
HW  OW  HW  HW  OW  HW  HW  OW  HW  HW  OW  HW  HW  OW  HW  HW  OW  HW  HW  OW  
HW  HW  OW  HW  HW  OW  HW  HW  OW  HW  HW  OW  HW  HW  OW  HW  HW  OW  HW  HW  
OW  HW  HW  OW  HW  HW  OW  HW  HW  OW  HW  HW  OW  HW  HW  OW  HW  HW  OW  HW  
HW  OW  HW  HW  OW  HW  HW  OW  HW  HW  OW  HW  HW  OW  HW  HW  OW  HW  HW  OW  
HW  HW  OW  HW  HW  OW  HW  HW  OW  HW  HW  OW  HW  HW  OW  HW  HW  OW  HW  HW  
OW  HW  HW  OW  HW  HW  OW  HW  HW  OW  HW  HW  OW  HW  HW  OW  HW  HW  OW  HW  
HW  OW  HW  HW  OW  HW  HW  OW  HW  HW  OW  HW  HW  OW  HW  HW  OW  HW  HW  OW  
HW  HW  OW  HW  HW  OW  HW  HW  OW  HW  HW  OW  HW  HW  OW  HW  HW  OW  HW  HW  
OW  HW  HW  OW  HW  HW  OW  HW  HW  OW  HW  HW  OW  HW  HW  OW  HW  HW  OW  HW  
HW  OW  HW  HW  OW  HW  HW  OW  HW  HW  OW  HW  HW  OW  HW  HW  OW  HW  HW  OW  
HW  HW  OW  HW  HW  OW  HW  HW  OW  HW  HW  OW  HW  HW  OW  HW  HW  OW  HW  HW  
OW  HW  HW  OW  HW  HW  OW  HW  HW  OW  HW  HW  OW  HW  HW  OW  HW  HW  OW  HW  
HW  OW  HW  HW  OW  HW  HW  OW  HW  HW  OW  HW  HW  OW  HW  HW  OW  HW  HW  OW  
HW  HW  OW  HW  HW  OW  HW  HW  OW  HW  HW  OW  HW  HW  OW  HW  HW  OW  HW  HW  
OW  HW  HW  OW  HW  HW  OW  HW  HW  OW  HW  HW  OW  HW  HW  OW  HW  HW  OW  HW  
HW  OW  HW  HW  OW  HW  HW  OW  HW  HW  OW  HW  HW  OW  HW  HW  OW  HW  HW  OW  
HW  HW  OW  HW  HW  OW  HW  HW  OW  HW  HW  OW  HW  HW  OW  HW  HW  OW  HW  HW  
OW  HW  HW  OW  HW  HW  OW  HW  HW  OW  HW  HW  OW  HW  HW  OW  HW  HW  OW  HW  
HW  OW  HW  HW  OW  HW  HW  OW  HW  HW  OW  HW  HW  OW  HW  HW  OW  HW  HW  OW  
HW  HW  OW  HW  HW  OW  HW  HW  OW  HW  HW  OW  HW  HW  OW  HW  HW  OW  HW  HW  
OW  HW  HW  OW  HW  HW  OW  HW  HW  OW  HW  HW  OW  HW  HW  OW  HW  HW  OW  HW  
HW  OW  HW  HW  OW  HW  HW  OW  HW  HW  OW  HW  HW  OW  HW  HW  OW  HW  HW  OW  
HW  HW  OW  HW  HW  OW  HW  HW  OW  HW  HW  OW  HW  HW  OW  HW  HW  OW  HW  HW  
OW  HW  HW  OW  HW  HW  OW  HW  HW  OW  HW  HW  OW  HW  HW  OW  HW  HW  OW  HW  
HW  OW  HW  HW  OW  HW  HW  OW  HW  HW  OW  HW  HW  OW  HW  HW  OW  HW  HW  OW  
HW  HW  OW  HW  HW  OW  HW  HW  OW  HW  HW  OW  HW  HW  OW  HW  HW  OW  HW  HW  
OW  HW  HW  OW  HW  HW  OW  HW  HW  OW  HW  HW  OW  HW  HW  OW  HW  HW  OW  HW  
HW  OW  HW  HW  OW  HW  HW  OW  HW  HW  OW  HW  HW  OW  HW  HW  OW  HW  HW  OW  
HW  HW  OW  HW  HW  OW  HW  HW  OW  HW  HW  OW  HW  HW  OW  HW  HW  OW  HW  HW  
OW  HW  HW  OW  HW  HW  OW  HW  HW  OW  HW  HW  OW  HW  HW  OW  HW  HW  OW  HW  
HW  OW  HW  HW  OW  HW  HW  OW  HW  HW  OW  HW  HW  OW  HW  HW  OW  HW  HW  OW  
HW  HW  OW  HW  HW  OW  HW  HW  OW  HW  HW  OW  HW  HW  OW  HW  HW  OW  HW  HW  
OW  HW  HW  OW  HW  HW  OW  HW  HW  OW  HW  HW  OW  HW  HW  OW  HW  HW  OW  HW  
HW  OW  HW  HW  OW  HW  HW  OW  HW  HW  OW  HW  HW  OW  HW  HW  OW  HW  HW  OW  
HW  HW  OW  HW  HW  OW  HW  HW  OW  HW  HW  OW  HW  HW  OW  HW  HW  OW  HW  HW  
OW  HW  HW  OW  HW  HW  OW  HW  HW  OW  HW  HW  OW  HW  HW  OW  HW  HW  OW  HW  
HW  OW  HW  HW  OW  HW  HW  OW  HW  HW  OW  HW  HW  OW  HW  HW  OW  HW  HW  OW  
HW  HW  OW  HW  HW  OW  HW  HW  OW  HW  HW  OW  HW  HW  OW  HW  HW  OW  HW  HW  
OW  HW  HW  OW  HW  HW  OW  HW  HW  OW  HW  HW  OW  HW  HW  OW  HW  HW  OW  HW  
HW  OW  HW  HW  OW  HW  HW  OW  HW  HW  OW  HW  HW  OW  HW  HW  OW  HW  HW  OW  
HW  HW  OW  HW  HW  OW  HW  HW  OW  HW  HW  OW  HW  HW  OW  HW  HW  OW  HW  HW  
OW  HW  HW  OW  HW  HW  OW  HW  HW  OW  HW  HW  OW  HW  HW  OW  HW  HW  OW  HW  
HW  OW  HW  HW  OW  HW  HW  OW  HW  HW  OW  HW  HW  OW  HW  HW  OW  HW  HW  OW  
HW  HW  OW  HW  HW  OW  HW  HW  OW  HW  HW  OW  HW  HW  OW  HW  HW  OW  HW  HW  
OW  HW  HW  OW  HW  HW  OW  HW  HW  OW  HW  HW  OW  HW  HW  OW  HW  HW  OW  HW  
HW  OW  HW  HW  OW  HW  HW  OW  HW  HW  OW  HW  HW  OW  HW  HW  OW  HW  HW  OW  
HW  HW  OW  HW  HW  OW  HW  HW  OW  HW  HW  OW  HW  HW  OW  HW  HW  OW  HW  HW  
OW  HW  HW  OW  HW  HW  OW  HW  HW  OW  HW  HW  OW  HW  HW  OW  HW  HW  OW  HW  
HW  OW  HW  HW  OW  HW  HW  OW  HW  HW  OW  HW  HW  OW  HW  HW  OW  HW  HW  OW  
HW  HW  OW  HW  HW  OW  HW  HW  OW  HW  HW  OW  HW  HW  OW  HW  HW  OW  HW  HW  
OW  HW  HW  OW  HW  HW  OW  HW  HW  OW  HW  HW  OW  HW  HW  OW  HW  HW  OW  HW  
HW  OW  HW  HW  OW  HW  HW  OW  HW  HW  OW  HW  HW  OW  HW  HW  OW  HW  HW  OW  
HW  HW  OW  HW  HW  OW  HW  HW  OW  HW  HW  OW  HW  HW  OW  HW  HW  OW  HW  HW  
OW  HW  HW  OW  HW  HW  OW  HW  HW  OW  HW  HW  OW  HW  HW  OW  HW  HW  OW  HW  
HW  OW  HW  HW  OW  HW  HW  OW  HW  HW  OW  HW  HW  OW  HW  HW  OW  HW  HW  OW  
HW  HW  OW  HW  HW  OW  HW  HW  OW  HW  HW  OW  HW  HW  OW  HW  HW  OW  HW  HW  
OW  HW  HW  OW  HW  HW  OW  HW  HW  OW  HW  HW  OW  HW  HW  OW  HW  HW  OW  HW  
HW  OW  HW  HW  OW  HW  HW  OW  HW  HW  OW  HW  HW  OW  HW  HW  OW  HW  HW  OW  
HW  HW  OW  HW  HW  OW  HW  HW  OW  HW  HW  OW  HW  HW  OW  HW  HW  OW  HW  HW  
OW  HW  HW  OW  HW  HW  OW  HW  HW  OW  HW  HW  OW  HW  HW  OW  HW  HW  OW  HW  
HW  OW  HW  HW  OW  HW  HW  OW  HW  HW  OW  HW  HW  OW  HW  HW  OW  HW  HW  OW  
HW  HW  OW  HW  HW  OW  HW  HW  OW  HW  HW  OW  HW  HW  OW  HW  HW  OW  HW  HW  
OW  HW  HW  OW  HW  HW  OW  HW  HW  OW  HW  HW  OW  HW  HW  OW  HW  HW  OW  HW  
HW  OW  HW  HW  OW  HW  HW  OW  HW  HW  OW  HW  HW  OW  HW  HW  OW  HW  HW  OW  
HW  HW  OW  HW  HW  OW  HW  HW  OW  HW  HW  OW  HW  HW  OW  HW  HW  OW  HW  HW  
OW  HW  HW  OW  HW  HW  OW  HW  HW  OW  HW  HW  OW  HW  HW  OW  HW  HW  OW  HW  
HW  OW  HW  HW  OW  HW  HW  OW  HW  HW  OW  HW  HW  OW  HW  HW  OW  HW  HW  OW  
HW  HW  OW  HW  HW  OW  HW  HW  OW  HW  HW  OW  HW  HW  OW  HW  HW  OW  HW  HW  
OW  HW  HW  OW  HW  HW  OW  HW  HW  OW  HW  HW  OW  HW  HW  OW  HW  HW  OW  HW  
HW  OW  HW  HW  OW  HW  HW  OW  HW  HW  OW  HW  HW  OW  HW  HW  OW  HW  HW  OW  
HW  HW  OW  HW  HW  OW  HW  HW  OW  HW  HW  OW  HW  HW  OW  HW  HW  OW  HW  HW  
OW  HW  HW  OW  HW  HW  OW  HW  HW  OW  HW  HW  OW  HW  HW  OW  HW  HW  OW  HW  
HW  OW  HW  HW  OW  HW  HW  OW  HW  HW  OW  HW  HW  OW  HW  HW  OW  HW  HW  OW  
HW  HW  OW  HW  HW  OW  HW  HW  OW  HW  HW  OW  HW  HW  OW  HW  HW  OW  HW  HW  
OW  HW  HW  OW  HW  HW  OW  HW  HW  OW  HW  HW  OW  HW  HW  OW  HW  HW  OW  HW  
HW  OW  HW  HW  OW  HW  HW  OW  HW  HW  OW  HW  HW  OW  HW  HW  OW  HW  HW  OW  
HW  HW  OW  HW  HW  OW  HW  HW  OW  HW  HW  OW  HW  HW  OW  HW  HW  OW  HW  HW  
OW  HW  HW  OW  HW  HW  OW  HW  HW  OW  HW  HW  OW  HW  HW  OW  HW  HW  OW  HW  
HW  OW  HW  HW  OW  HW  HW  OW  HW  HW  OW  HW  HW  OW  HW  HW  OW  HW  HW  OW  
HW  HW  OW  HW  HW  OW  HW  HW  OW  HW  HW  OW  HW  HW  OW  HW  HW  OW  HW  HW  
OW  HW  HW  OW  HW  HW  OW  HW  HW  OW  HW  HW  OW  HW  HW  OW  HW  HW  OW  HW  
HW  OW  HW  HW  OW  HW  HW  OW  HW  HW  OW  HW  HW  OW  HW  HW  OW  HW  HW  OW  
HW  HW  OW  HW  HW  OW  HW  HW  OW  HW  HW  OW  HW  HW  OW  HW  HW  OW  HW  HW  
OW  HW  HW  OW  HW  HW  OW  HW  HW  OW  HW  HW  OW  HW  HW  OW  HW  HW  OW  HW  
HW  OW  HW  HW  OW  HW  HW  OW  HW  HW  OW  HW  HW  OW  HW  HW  OW  HW  HW  OW  
HW  HW  OW  HW  HW  OW  HW  HW  OW  HW  HW  OW  HW  HW  OW  HW  HW  OW  HW  HW  
OW  HW  HW  OW  HW  HW  OW  HW  HW  OW  HW  HW  OW  HW  HW  OW  HW  HW  OW  HW  
HW  OW  HW  HW  OW  HW  HW  OW  HW  HW  OW  HW  HW  OW  HW  HW  OW  HW  HW  OW  
HW  HW  OW  HW  HW  OW  HW  HW  OW  HW  HW  OW  HW  HW  OW  HW  HW  OW  HW  HW  
OW  HW  HW  OW  HW  HW  OW  HW  HW  OW  HW  HW  OW  HW  HW  OW  HW  HW  OW  HW  
HW  OW  HW  HW  OW  HW  HW  OW  HW  HW  OW  HW  HW  OW  HW  HW  OW  HW  HW  OW  
HW  HW  OW  HW  HW  OW  HW  HW  OW  HW  HW  OW  HW  HW  OW  HW  HW  OW  HW  HW  
OW  HW  HW  OW  HW  HW  OW  HW  HW  OW  HW  HW  OW  HW  HW  OW  HW  HW  OW  HW  
HW  OW  HW  HW  OW  HW  HW  OW  HW  HW  OW  HW  HW  OW  HW  HW  OW  HW  HW  OW  
HW  HW  OW  HW  HW  OW  HW  HW  OW  HW  HW  OW  HW  HW  OW  HW  HW  OW  HW  HW  
OW  HW  HW  OW  HW  HW  OW  HW  HW  OW  HW  HW  OW  HW  HW  OW  HW  HW  OW  HW  
HW  OW  HW  HW  OW  HW  HW  OW  HW  HW  OW  HW  HW  OW  HW  HW  OW  HW  HW  OW  
HW  HW  OW  HW  HW  OW  HW  HW  OW  HW  HW  OW  HW  HW  OW  HW  HW  OW  HW  HW  
OW  HW  HW  OW  HW  HW  OW  HW  HW  OW  HW  HW  OW  HW  HW  OW  HW  HW  OW  HW  
HW  OW  HW  HW  OW  HW  HW  OW  HW  HW  OW  HW  HW  OW  HW  HW  OW  HW  HW  OW  
HW  HW  OW  HW  HW  OW  HW  HW  OW  HW  HW  OW  HW  HW  OW  HW  HW  OW  HW  HW  
OW  HW  HW  OW  HW  HW  OW  HW  HW  OW  HW  HW  OW  HW  HW  OW  HW  HW  OW  HW  
HW  OW  HW  HW  OW  HW  HW  OW  HW  HW  OW  HW  HW  OW  HW  HW  OW  HW  HW  OW  
HW  HW  OW  HW  HW  OW  HW  HW  OW  HW  HW  OW  HW  HW  OW  HW  HW  OW  HW  HW  
OW  HW  HW  OW  HW  HW  OW  HW  HW  OW  HW  HW  OW  HW  HW  OW  HW  HW  OW  HW  
HW  OW  HW  HW  OW  HW  HW  OW  HW  HW  OW  HW  HW  OW  HW  HW  OW  HW  HW  OW  
HW  HW  OW  HW  HW  OW  HW  HW  OW  HW  HW  OW  HW  HW  OW  HW  HW  OW  HW  HW  
OW  HW  HW  OW  HW  HW  OW  HW  HW  OW  HW  HW  OW  HW  HW  OW  HW  HW  OW  HW  
HW  OW  HW  HW  OW  HW  HW  OW  HW  HW  OW  HW  HW  OW  HW  HW  OW  HW  HW  OW  
HW  HW  OW  HW  HW  OW  HW  HW  OW  HW  HW  OW  HW  HW  OW  HW  HW  OW  HW  HW  
OW  HW  HW  OW  HW  HW  OW  HW  HW  OW  HW  HW  OW  HW  HW  OW  HW  HW  OW  HW  
HW  OW  HW  HW  OW  HW  HW  OW  HW  HW  OW  HW  HW  OW  HW  HW  OW  HW  HW  OW  
HW  HW  OW  HW  HW  OW  HW  HW  OW  HW  HW  OW  HW  HW  OW  HW  HW  OW  HW  HW  
OW  HW  HW  OW  HW  HW  OW  HW  HW  OW  HW  HW  OW  HW  HW  OW  HW  HW  OW  HW  
HW  OW  HW  HW  OW  HW  HW  OW  HW  HW  OW  HW  HW  OW  HW  HW  OW  HW  HW  OW  
HW  HW  OW  HW  HW  OW  HW  HW  OW  HW  HW  OW  HW  HW  OW  HW  HW  OW  HW  HW  
OW  HW  HW  OW  HW  HW  OW  HW  HW  OW  HW  HW  OW  HW  HW  OW  HW  HW  OW  HW  
HW  OW  HW  HW  OW  HW  HW  OW  HW  HW  OW  HW  HW  OW  HW  HW  OW  HW  HW  OW  
HW  HW  OW  HW  HW  OW  HW  HW  OW  HW  HW  OW  HW  HW  OW  HW  HW  OW  HW  HW  
OW  HW  HW  OW  HW  HW  OW  HW  HW  OW  HW  HW  OW  HW  HW  OW  HW  HW  OW  HW  
HW  OW  HW  HW  OW  HW  HW  OW  HW  HW  OW  HW  HW  OW  HW  HW  OW  HW  HW  OW  
HW  HW  OW  HW  HW  OW  HW  HW  OW  HW  HW  OW  HW  HW  OW  HW  HW  OW  HW  HW  
OW  HW  HW  OW  HW  HW  OW  HW  HW  OW  HW  HW  OW  HW  HW  OW  HW  HW  OW  HW  
HW  OW  HW  HW  OW  HW  HW  OW  HW  HW  OW  HW  HW  OW  HW  HW  OW  HW  HW  OW  
HW  HW  OW  HW  HW  OW  HW  HW  OW  HW  HW  OW  HW  HW  OW  HW  HW  OW  HW  HW  
OW  HW  HW  OW  HW  HW  OW  HW  HW  OW  HW  HW  OW  HW  HW  OW  HW  HW  OW  HW  
HW  OW  HW  HW  OW  HW  HW  OW  HW  HW  OW  HW  HW  OW  HW  HW  OW  HW  HW  OW  
HW  HW  OW  HW  HW  OW  HW  HW  OW  HW  HW  OW  HW  HW  OW  HW  HW  OW  HW  HW  
OW  HW  HW  OW  HW  HW  OW  HW  HW  OW  HW  HW  OW  HW  HW  OW  HW  HW  OW  HW  
HW  OW  HW  HW  OW  HW  HW  OW  HW  HW  OW  HW  HW  OW  HW  HW  OW  HW  HW  OW  
HW  HW  OW  HW  HW  OW  HW  HW  OW  HW  HW  OW  HW  HW  OW  HW  HW  OW  HW  HW  
OW  HW  HW  OW  HW  HW  OW  HW  HW  OW  HW  HW  OW  HW  HW  OW  HW  HW  OW  HW  
HW  OW  HW  HW  OW  HW  HW  OW  HW  HW  OW  HW  HW  OW  HW  HW  OW  HW  HW  OW  
HW  HW  OW  HW  HW  OW  HW  HW  OW  HW  HW  OW  HW  HW  OW  HW  HW  OW  HW  HW  
OW  HW  HW  OW  HW  HW  OW  HW  HW  OW  HW  HW  OW  HW  HW  OW  HW  HW  OW  HW  
HW  OW  HW  HW  OW  HW  HW  OW  HW  HW  OW  HW  HW  OW  HW  HW  OW  HW  HW  OW  
HW  HW  OW  HW  HW  OW  HW  HW  OW  HW  HW  OW  HW  HW  OW  HW  HW  OW  HW  HW  
OW  HW  HW  OW  HW  HW  OW  HW  HW  OW  HW  HW  OW  HW  HW  OW  HW  HW  OW  HW  
HW  OW  HW  HW  OW  HW  HW  OW  HW  HW  OW  HW  HW  OW  HW  HW  OW  HW  HW  OW  
HW  HW  OW  HW  HW  OW  HW  HW  OW  HW  HW  OW  HW  HW  OW  HW  HW  OW  HW  HW  
OW  HW  HW  OW  HW  HW  OW  HW  HW  OW  HW  HW  OW  HW  HW  OW  HW  HW  OW  HW  
HW  OW  HW  HW  OW  HW  HW  OW  HW  HW  OW  HW  HW  OW  HW  HW  OW  HW  HW  OW  
HW  HW  OW  HW  HW  OW  HW  HW  OW  HW  HW  OW  HW  HW  OW  HW  HW  OW  HW  HW  
OW  HW  HW  OW  HW  HW  OW  HW  HW  OW  HW  HW  OW  HW  HW  OW  HW  HW  OW  HW  
HW  OW  HW  HW  OW  HW  HW  OW  HW  HW  OW  HW  HW  OW  HW  HW  OW  HW  HW  OW  
HW  HW  OW  HW  HW  OW  HW  HW  OW  HW  HW  OW  HW  HW  OW  HW  HW  OW  HW  HW  
OW  HW  HW  OW  HW  HW  OW  HW  HW  OW  HW  HW  OW  HW  HW  OW  HW  HW  OW  HW  
HW  OW  HW  HW  OW  HW  HW  OW  HW  HW  OW  HW  HW  OW  HW  HW  OW  HW  HW  OW  
HW  HW  OW  HW  HW  OW  HW  HW  OW  HW  HW  OW  HW  HW  OW  HW  HW  OW  HW  HW  
OW  HW  HW  OW  HW  HW  OW  HW  HW  OW  HW  HW  OW  HW  HW  OW  HW  HW  OW  HW  
HW  OW  HW  HW  OW  HW  HW  OW  HW  HW  OW  HW  HW  OW  HW  HW  OW  HW  HW  OW  
HW  HW  OW  HW  HW  OW  HW  HW  OW  HW  HW  OW  HW  HW  OW  HW  HW  OW  HW  HW  
OW  HW  HW  OW  HW  HW  OW  HW  HW  OW  HW  HW  OW  HW  HW  OW  HW  HW  OW  HW  
HW  OW  HW  HW  OW  HW  HW  OW  HW  HW  OW  HW  HW  OW  HW  HW  OW  HW  HW  OW  
HW  HW  OW  HW  HW  OW  HW  HW  OW  HW  HW  OW  HW  HW  OW  HW  HW  OW  HW  HW  
OW  HW  HW  OW  HW  HW  OW  HW  HW  OW  HW  HW  OW  HW  HW  OW  HW  HW  OW  HW  
HW  OW  HW  HW  OW  HW  HW  OW  HW  HW  OW  HW  HW  OW  HW  HW  OW  HW  HW  OW  
HW  HW  OW  HW  HW  OW  HW  HW  OW  HW  HW  OW  HW  HW  OW  HW  HW  OW  HW  HW  
OW  HW  HW  OW  HW  HW  OW  HW  HW  OW  HW  HW  OW  HW  HW  OW  HW  HW  OW  HW  
HW  OW  HW  HW  OW  HW  HW  OW  HW  HW  OW  HW  HW  OW  HW  HW  OW  HW  HW  OW  
HW  HW  OW  HW  HW  OW  HW  HW  OW  HW  HW  OW  HW  HW  OW  HW  HW  OW  HW  HW  
OW  HW  HW  OW  HW  HW  OW  HW  HW  OW  HW  HW  OW  HW  HW  OW  HW  HW  OW  HW  
HW  OW  HW  HW  OW  HW  HW  OW  HW  HW  OW  HW  HW  OW  HW  HW  OW  HW  HW  OW  
HW  HW  OW  HW  HW  OW  HW  HW  OW  HW  HW  OW  HW  HW  OW  HW  HW  OW  HW  HW  
OW  HW  HW  OW  HW  HW  OW  HW  HW  OW  HW  HW  OW  HW  HW  OW  HW  HW  OW  HW  
HW  OW  HW  HW  OW  HW  HW  OW  HW  HW  OW  HW  HW  OW  HW  HW  OW  HW  HW  OW  
HW  HW  OW  HW  HW  OW  HW  HW  OW  HW  HW  OW  HW  HW  OW  HW  HW  OW  HW  HW  
OW  HW  HW  OW  HW  HW  OW  HW  HW  OW  HW  HW  OW  HW  HW  OW  HW  HW  OW  HW  
HW  OW  HW  HW  OW  HW  HW  OW  HW  HW  OW  HW  HW  OW  HW  HW  OW  HW  HW  OW  
HW  HW  OW  HW  HW  OW  HW  HW  OW  HW  HW  OW  HW  HW  OW  HW  HW  OW  HW  HW  
OW  HW  HW  OW  HW  HW  OW  HW  HW  OW  HW  HW  OW  HW  HW  OW  HW  HW  OW  HW  
HW  OW  HW  HW  OW  HW  HW  OW  HW  HW  OW  HW  HW  OW  HW  HW  OW  HW  HW  OW  
HW  HW  OW  HW  HW  OW  HW  HW  OW  HW  HW  OW  HW  HW  OW  HW  HW  OW  HW  HW  
OW  HW  HW  OW  HW  HW  OW  HW  HW  OW  HW  HW  OW  HW  HW  OW  HW  HW  OW  HW  
HW  OW  HW  HW  OW  HW  HW  OW  HW  HW  OW  HW  HW  OW  HW  HW  OW  HW  HW  OW  
HW  HW  OW  HW  HW  OW  HW  HW  OW  HW  HW  OW  HW  HW  OW  HW  HW  OW  HW  HW  
OW  HW  HW  OW  HW  HW  OW  HW  HW  OW  HW  HW  OW  HW  HW  OW  HW  HW  OW  HW  
HW  OW  HW  HW  OW  HW  HW  OW  HW  HW  OW  HW  HW  OW  HW  HW  OW  HW  HW  OW  
HW  HW  OW  HW  HW  OW  HW  HW  OW  HW  HW  OW  HW  HW  OW  HW  HW  OW  HW  HW  
OW  HW  HW  OW  HW  HW  OW  HW  HW  OW  HW  HW  OW  HW  HW  OW  HW  HW  OW  HW  
HW  OW  HW  HW  OW  HW  HW  OW  HW  HW  OW  HW  HW  OW  HW  HW  OW  HW  HW  OW  
HW  HW  OW  HW  HW  OW  HW  HW  OW  HW  HW  OW  HW  HW  OW  HW  HW  OW  HW  HW  
OW  HW  HW  OW  HW  HW  OW  HW  HW  OW  HW  HW  OW  HW  HW  OW  HW  HW  OW  HW  
HW  OW  HW  HW  OW  HW  HW  OW  HW  HW  OW  HW  HW  OW  HW  HW  OW  HW  HW  OW  
HW  HW  OW  HW  HW  OW  HW  HW  OW  HW  HW  OW  HW  HW  OW  HW  HW  OW  HW  HW  
OW  HW  HW  OW  HW  HW  OW  HW  HW  OW  HW  HW  OW  HW  HW  OW  HW  HW  OW  HW  
HW  OW  HW  HW  OW  HW  HW  OW  HW  HW  OW  HW  HW  OW  HW  HW  OW  HW  HW  OW  
HW  HW  OW  HW  HW  OW  HW  HW  OW  HW  HW  OW  HW  HW  OW  HW  HW  OW  HW  HW  
OW  HW  HW  OW  HW  HW  OW  HW  HW  OW  HW  HW  OW  HW  HW  OW  HW  HW  OW  HW  
HW  OW  HW  HW  OW  HW  HW  OW  HW  HW  OW  HW  HW  OW  HW  HW  OW  HW  HW  OW  
HW  HW  OW  HW  HW  OW  HW  HW  OW  HW  HW  OW  HW  HW  OW  HW  HW  OW  HW  HW  
OW  HW  HW  OW  HW  HW  OW  HW  HW  OW  HW  HW  OW  HW  HW  OW  HW  HW  OW  HW  
HW  OW  HW  HW  OW  HW  HW  OW  HW  HW  OW  HW  HW  OW  HW  HW  OW  HW  HW  OW  
HW  HW  OW  HW  HW  OW  HW  HW  OW  HW  HW  OW  HW  HW  OW  HW  HW  OW  HW  HW  
OW  HW  HW  OW  HW  HW  OW  HW  HW  OW  HW  HW  OW  HW  HW  OW  HW  HW  OW  HW  
HW  OW  HW  HW  OW  HW  HW  OW  HW  HW  OW  HW  HW  OW  HW  HW  OW  HW  HW  OW  
HW  HW  OW  HW  HW  OW  HW  HW  OW  HW  HW  OW  HW  HW  OW  HW  HW  OW  HW  HW  
OW  HW  HW  OW  HW  HW  OW  HW  HW  OW  HW  HW  OW  HW  HW  OW  HW  HW  OW  HW  
HW  OW  HW  HW  OW  HW  HW  OW  HW  HW  OW  HW  HW  OW  HW  HW  OW  HW  HW  OW  
HW  HW  OW  HW  HW  OW  HW  HW  OW  HW  HW  OW  HW  HW  OW  HW  HW  OW  HW  HW  
OW  HW  HW  OW  HW  HW  OW  HW  HW  OW  HW  HW  OW  HW  HW  OW  HW  HW  OW  HW  
HW  OW  HW  HW  OW  HW  HW  OW  HW  HW  OW  HW  HW  OW  HW  HW  OW  HW  HW  OW  
HW  HW  OW  HW  HW  OW  HW  HW  OW  HW  HW  OW  HW  HW  OW  HW  HW  OW  HW  HW  
OW  HW  HW  OW  HW  HW  OW  HW  HW  OW  HW  HW  OW  HW  HW  OW  HW  HW  OW  HW  
HW  OW  HW  HW  OW  HW  HW  OW  HW  HW  OW  HW  HW  OW  HW  HW  OW  HW  HW  OW  
HW  HW  OW  HW  HW  OW  HW  HW  OW  HW  HW  OW  HW  HW  OW  HW  HW  OW  HW  HW  
OW  HW  HW  OW  HW  HW  OW  HW  HW  OW  HW  HW  OW  HW  HW  OW  HW  HW  OW  HW  
HW  OW  HW  HW  OW  HW  HW  OW  HW  HW  OW  HW  HW  OW  HW  HW  OW  HW  HW  OW  
HW  HW  OW  HW  HW  OW  HW  HW  OW  HW  HW  OW  HW  HW  OW  HW  HW  OW  HW  HW  
OW  HW  HW  OW  HW  HW  OW  HW  HW  OW  HW  HW  OW  HW  HW  OW  HW  HW  OW  HW  
HW  OW  HW  HW  OW  HW  HW  OW  HW  HW  OW  HW  HW  OW  HW  HW  OW  HW  HW  OW  
HW  HW  OW  HW  HW  OW  HW  HW  OW  HW  HW  OW  HW  HW  OW  HW  HW  OW  HW  HW  
OW  HW  HW  OW  HW  HW  OW  HW  HW  OW  HW  HW  OW  HW  HW  OW  HW  HW  OW  HW  
HW  OW  HW  HW  OW  HW  HW  OW  HW  HW  OW  HW  HW  OW  HW  HW  OW  HW  HW  OW  
HW  HW  OW  HW  HW  OW  HW  HW  OW  HW  HW  OW  HW  HW  OW  HW  HW  OW  HW  HW  
OW  HW  HW  OW  HW  HW  OW  HW  HW  OW  HW  HW  OW  HW  HW  OW  HW  HW  OW  HW  
HW  OW  HW  HW  OW  HW  HW  OW  HW  HW  OW  HW  HW  OW  HW  HW  OW  HW  HW  OW  
HW  HW  OW  HW  HW  OW  HW  HW  OW  HW  HW  OW  HW  HW  OW  HW  HW  OW  HW  HW  
OW  HW  HW  OW  HW  HW  OW  HW  HW  OW  HW  HW  OW  HW  HW  OW  HW  HW  OW  HW  
HW  OW  HW  HW  OW  HW  HW  OW  HW  HW  OW  HW  HW  OW  HW  HW  OW  HW  HW  OW  
HW  HW  OW  HW  HW  OW  HW  HW  OW  HW  HW  OW  HW  HW  OW  HW  HW  OW  HW  HW  
OW  HW  HW  OW  HW  HW  OW  HW  HW  OW  HW  HW  OW  HW  HW  OW  HW  HW  OW  HW  
HW  OW  HW  HW  OW  HW  HW  OW  HW  HW  OW  HW  HW  OW  HW  HW  OW  HW  HW  OW  
HW  HW  OW  HW  HW  OW  HW  HW  OW  HW  HW  OW  HW  HW  OW  HW  HW  OW  HW  HW  
OW  HW  HW  OW  HW  HW  OW  HW  HW  OW  HW  HW  OW  HW  HW  OW  HW  HW  OW  HW  
HW  OW  HW  HW  OW  HW  HW  OW  HW  HW  OW  HW  HW  OW  HW  HW  OW  HW  HW  OW  
HW  HW  OW  HW  HW  OW  HW  HW  OW  HW  HW  OW  HW  HW  OW  HW  HW  OW  HW  HW  
OW  HW  HW  OW  HW  HW  OW  HW  HW  OW  HW  HW  OW  HW  HW  OW  HW  HW  OW  HW  
HW  OW  HW  HW  OW  HW  HW  OW  HW  HW  OW  HW  HW  OW  HW  HW  OW  HW  HW  OW  
HW  HW  OW  HW  HW  OW  HW  HW  OW  HW  HW  OW  HW  HW  OW  HW  HW  OW  HW  HW  
OW  HW  HW  OW  HW  HW  OW  HW  HW  OW  HW  HW  OW  HW  HW  OW  HW  HW  OW  HW  
HW  OW  HW  HW  OW  HW  HW  OW  HW  HW  OW  HW  HW  OW  HW  HW  OW  HW  HW  OW  
HW  HW  OW  HW  HW  OW  HW  HW  OW  HW  HW  OW  HW  HW  OW  HW  HW  OW  HW  HW  
OW  HW  HW  OW  HW  HW  OW  HW  HW  OW  HW  HW  OW  HW  HW  OW  HW  HW  OW  HW  
HW  OW  HW  HW  OW  HW  HW  OW  HW  HW  OW  HW  HW  OW  HW  HW  OW  HW  HW  OW  
HW  HW  OW  HW  HW  OW  HW  HW  OW  HW  HW  OW  HW  HW  OW  HW  HW  OW  HW  HW  
OW  HW  HW  OW  HW  HW  OW  HW  HW  OW  HW  HW  OW  HW  HW  OW  HW  HW  OW  HW  
HW  OW  HW  HW  OW  HW  HW  OW  HW  HW  OW  HW  HW  OW  HW  HW  OW  HW  HW  OW  
HW  HW  OW  HW  HW  OW  HW  HW  OW  HW  HW  OW  HW  HW  OW  HW  HW  OW  HW  HW  
OW  HW  HW  OW  HW  HW  OW  HW  HW  OW  HW  HW  OW  HW  HW  OW  HW  HW  OW  HW  
HW  OW  HW  HW  OW  HW  HW  OW  HW  HW  OW  HW  HW  OW  HW  HW  OW  HW  HW  OW  
HW  HW  OW  HW  HW  OW  HW  HW  OW  HW  HW  OW  HW  HW  OW  HW  HW  OW  HW  HW  
OW  HW  HW  OW  HW  HW  OW  HW  HW  OW  HW  HW  OW  HW  HW  OW  HW  HW  OW  HW  
HW  OW  HW  HW  OW  HW  HW  OW  HW  HW  OW  HW  HW  OW  HW  HW  OW  HW  HW  OW  
HW  HW  OW  HW  HW  OW  HW  HW  OW  HW  HW  OW  HW  HW  OW  HW  HW  OW  HW  HW  
OW  HW  HW  OW  HW  HW  OW  HW  HW  OW  HW  HW  OW  HW  HW  OW  HW  HW  OW  HW  
HW  OW  HW  HW  OW  HW  HW  OW  HW  HW  OW  HW  HW  OW  HW  HW  OW  HW  HW  OW  
HW  HW  OW  HW  HW  OW  HW  HW  OW  HW  HW  OW  HW  HW  OW  HW  HW  OW  HW  HW  
OW  HW  HW  OW  HW  HW  OW  HW  HW  OW  HW  HW  OW  HW  HW  OW  HW  HW  OW  HW  
HW  OW  HW  HW  OW  HW  HW  OW  HW  HW  OW  HW  HW  OW  HW  HW  OW  HW  HW  OW  
HW  HW  OW  HW  HW  OW  HW  HW  OW  HW  HW  OW  HW  HW  OW  HW  HW  OW  HW  HW  
OW  HW  HW  OW  HW  HW  OW  HW  HW  OW  HW  HW  OW  HW  HW  OW  HW  HW  OW  HW  
HW  OW  HW  HW  OW  HW  HW  OW  HW  HW  OW  HW  HW  OW  HW  HW  OW  HW  HW  OW  
HW  HW  OW  HW  HW  OW  HW  HW  OW  HW  HW  OW  HW  HW  OW  HW  HW  OW  HW  HW  
OW  HW  HW  OW  HW  HW  OW  HW  HW  OW  HW  HW  OW  HW  HW  OW  HW  HW  OW  HW  
HW  OW  HW  HW  OW  HW  HW  OW  HW  HW  OW  HW  HW  OW  HW  HW  OW  HW  HW  OW  
HW  HW  OW  HW  HW  OW  HW  HW  OW  HW  HW  OW  HW  HW  OW  HW  HW  OW  HW  HW  
OW  HW  HW  OW  HW  HW  OW  HW  HW  OW  HW  HW  OW  HW  HW  OW  HW  HW  OW  HW  
HW  OW  HW  HW  OW  HW  HW  OW  HW  HW  OW  HW  HW  OW  HW  HW  OW  HW  HW  OW  
HW  HW  OW  HW  HW  OW  HW  HW  OW  HW  HW  OW  HW  HW  OW  HW  HW  OW  HW  HW  
OW  HW  HW  OW  HW  HW  OW  HW  HW  OW  HW  HW  OW  HW  HW  OW  HW  HW  OW  HW  
HW  OW  HW  HW  OW  HW  HW  OW  HW  HW  OW  HW  HW  OW  HW  HW  OW  HW  HW  OW  
HW  HW  OW  HW  HW  OW  HW  HW  OW  HW  HW  OW  HW  HW  OW  HW  HW  OW  HW  HW  
OW  HW  HW  OW  HW  HW  OW  HW  HW  OW  HW  HW  OW  HW  HW  OW  HW  HW  OW  HW  
HW  OW  HW  HW  OW  HW  HW  OW  HW  HW  OW  HW  HW  OW  HW  HW  OW  HW  HW  OW  
HW  HW  OW  HW  HW  OW  HW  HW  OW  HW  HW  OW  HW  HW  OW  HW  HW  OW  HW  HW  
OW  HW  HW  OW  HW  HW  OW  HW  HW  OW  HW  HW  OW  HW  HW  OW  HW  HW  OW  HW  
HW  OW  HW  HW  OW  HW  HW  OW  HW  HW  OW  HW  HW  OW  HW  HW  OW  HW  HW  OW  
HW  HW  OW  HW  HW  OW  HW  HW  OW  HW  HW  OW  HW  HW  OW  HW  HW  OW  HW  HW  
OW  HW  HW  OW  HW  HW  OW  HW  HW  OW  HW  HW  OW  HW  HW  OW  HW  HW  OW  HW  
HW  OW  HW  HW  OW  HW  HW  OW  HW  HW  OW  HW  HW  OW  HW  HW  OW  HW  HW  OW  
HW  HW  OW  HW  HW  OW  HW  HW  OW  HW  HW  OW  HW  HW  OW  HW  HW  OW  HW  HW  
OW  HW  HW  OW  HW  HW  OW  HW  HW  OW  HW  HW  OW  HW  HW  OW  HW  HW  OW  HW  
HW  OW  HW  HW  OW  HW  HW  OW  HW  HW  OW  HW  HW  OW  HW  HW  OW  HW  HW  OW  
HW  HW  OW  HW  HW  OW  HW  HW  OW  HW  HW  OW  HW  HW  OW  HW  HW  OW  HW  HW  
OW  HW  HW  OW  HW  HW  OW  HW  HW  OW  HW  HW  OW  HW  HW  OW  HW  HW  OW  HW  
HW  OW  HW  HW  OW  HW  HW  OW  HW  HW  OW  HW  HW  OW  HW  HW  OW  HW  HW  OW  
HW  HW  OW  HW  HW  OW  HW  HW  OW  HW  HW  OW  HW  HW  OW  HW  HW  OW  HW  HW  
OW  HW  HW  OW  HW  HW  OW  HW  HW  OW  HW  HW  OW  HW  HW  OW  HW  HW  OW  HW  
HW  OW  HW  HW  OW  HW  HW  OW  HW  HW  OW  HW  HW  OW  HW  HW  OW  HW  HW  OW  
HW  HW  OW  HW  HW  OW  HW  HW  OW  HW  HW  OW  HW  HW  OW  HW  HW  OW  HW  HW  
OW  HW  HW  OW  HW  HW  OW  HW  HW  OW  HW  HW  OW  HW  HW  OW  HW  HW  OW  HW  
HW  OW  HW  HW  OW  HW  HW  OW  HW  HW  OW  HW  HW  OW  HW  HW  OW  HW  HW  OW  
HW  HW  OW  HW  HW  OW  HW  HW  OW  HW  HW  OW  HW  HW  OW  HW  HW  OW  HW  HW  
OW  HW  HW  OW  HW  HW  OW  HW  HW  OW  HW  HW  OW  HW  HW  OW  HW  HW  OW  HW  
HW  OW  HW  HW  OW  HW  HW  OW  HW  HW  OW  HW  HW  OW  HW  HW  OW  HW  HW  OW  
HW  HW  OW  HW  HW  OW  HW  HW  OW  HW  HW  OW  HW  HW  OW  HW  HW  OW  HW  HW  
OW  HW  HW  OW  HW  HW  OW  HW  HW  OW  HW  HW  OW  HW  HW  OW  HW  HW  OW  HW  
HW  OW  HW  HW  OW  HW  HW  OW  HW  HW  OW  HW  HW  OW  HW  HW  OW  HW  HW  OW  
HW  HW  OW  HW  HW  OW  HW  HW  OW  HW  HW  OW  HW  HW  OW  HW  HW  OW  HW  HW  
OW  HW  HW  OW  HW  HW  OW  HW  HW  OW  HW  HW  OW  HW  HW  OW  HW  HW  OW  HW  
HW  OW  HW  HW  OW  HW  HW  OW  HW  HW  OW  HW  HW  OW  HW  HW  OW  HW  HW  OW  
HW  HW  OW  HW  HW  OW  HW  HW  OW  HW  HW  OW  HW  HW  OW  HW  HW  OW  HW  HW  
OW  HW  HW  OW  HW  HW  OW  HW  HW  OW  HW  HW  OW  HW  HW  OW  HW  HW  OW  HW  
HW  OW  HW  HW  OW  HW  HW  OW  HW  HW  OW  HW  HW  OW  HW  HW  OW  HW  HW  OW  
HW  HW  OW  HW  HW  OW  HW  HW  OW  HW  HW  OW  HW  HW  OW  HW  HW  OW  HW  HW  
OW  HW  HW  OW  HW  HW  OW  HW  HW  OW  HW  HW  OW  HW  HW  OW  HW  HW  OW  HW  
HW  OW  HW  HW  OW  HW  HW  OW  HW  HW  OW  HW  HW  OW  HW  HW  OW  HW  HW  OW  
HW  HW  OW  HW  HW  OW  HW  HW  OW  HW  HW  OW  HW  HW  OW  HW  HW  OW  HW  HW  
OW  HW  HW  OW  HW  HW  OW  HW  HW  OW  HW  HW  OW  HW  HW  OW  HW  HW  OW  HW  
HW  OW  HW  HW  OW  HW  HW  OW  HW  HW  OW  HW  HW  OW  HW  HW  OW  HW  HW  OW  
HW  HW  OW  HW  HW  OW  HW  HW  OW  HW  HW  OW  HW  HW  OW  HW  HW  OW  HW  HW  
OW  HW  HW  OW  HW  HW  OW  HW  HW  OW  HW  HW  OW  HW  HW  OW  HW  HW  OW  HW  
HW  OW  HW  HW  OW  HW  HW  OW  HW  HW  OW  HW  HW  OW  HW  HW  OW  HW  HW  OW  
HW  HW  OW  HW  HW  OW  HW  HW  OW  HW  HW  OW  HW  HW  OW  HW  HW  OW  HW  HW  
OW  HW  HW  OW  HW  HW  OW  HW  HW  OW  HW  HW  OW  HW  HW  OW  HW  HW  OW  HW  
HW  OW  HW  HW  OW  HW  HW  OW  HW  HW  OW  HW  HW  OW  HW  HW  OW  HW  HW  OW  
HW  HW  OW  HW  HW  OW  HW  HW  OW  HW  HW  OW  HW  HW  OW  HW  HW  OW  HW  HW  
OW  HW  HW  OW  HW  HW  OW  HW  HW  OW  HW  HW  OW  HW  HW  OW  HW  HW  OW  HW  
HW  OW  HW  HW  OW  HW  HW  OW  HW  HW  OW  HW  HW  OW  HW  HW  OW  HW  HW  OW  
HW  HW  OW  HW  HW  OW  HW  HW  OW  HW  HW  OW  HW  HW  OW  HW  HW  OW  HW  HW  
OW  HW  HW  OW  HW  HW  OW  HW  HW  OW  HW  HW  OW  HW  HW  OW  HW  HW  OW  HW  
HW  OW  HW  HW  OW  HW  HW  OW  HW  HW  OW  HW  HW  OW  HW  HW  OW  HW  HW  OW  
HW  HW  OW  HW  HW  OW  HW  HW  OW  HW  HW  OW  HW  HW  OW  HW  HW  OW  HW  HW  
OW  HW  HW  OW  HW  HW  OW  HW  HW  OW  HW  HW  OW  HW  HW  OW  HW  HW  OW  HW  
HW  OW  HW  HW  OW  HW  HW  OW  HW  HW  OW  HW  HW  OW  HW  HW  OW  HW  HW  OW  
HW  HW  OW  HW  HW  OW  HW  HW  OW  HW  HW  OW  HW  HW  OW  HW  HW  OW  HW  HW  
OW  HW  HW  OW  HW  HW  OW  HW  HW  OW  HW  HW  OW  HW  HW  OW  HW  HW  OW  HW  
HW  OW  HW  HW  OW  HW  HW  OW  HW  HW  OW  HW  HW  OW  HW  HW  OW  HW  HW  OW  
HW  HW  OW  HW  HW  OW  HW  HW  OW  HW  HW  OW  HW  HW  OW  HW  HW  OW  HW  HW  
OW  HW  HW  OW  HW  HW  OW  HW  HW  OW  HW  HW  OW  HW  HW  OW  HW  HW  OW  HW  
HW  OW  HW  HW  OW  HW  HW  OW  HW  HW  OW  HW  HW  OW  HW  HW  OW  HW  HW  OW  
HW  HW  OW  HW  HW  OW  HW  HW  OW  HW  HW  OW  HW  HW  OW  HW  HW  OW  HW  HW  
OW  HW  HW  OW  HW  HW  OW  HW  HW  OW  HW  HW  OW  HW  HW  OW  HW  HW  OW  HW  
HW  OW  HW  HW  OW  HW  HW  OW  HW  HW  OW  HW  HW  OW  HW  HW  OW  HW  HW  OW  
HW  HW  OW  HW  HW  OW  HW  HW  OW  HW  HW  OW  HW  HW  OW  HW  HW  OW  HW  HW  
OW  HW  HW  OW  HW  HW  OW  HW  HW  OW  HW  HW  OW  HW  HW  OW  HW  HW  OW  HW  
HW  OW  HW  HW  OW  HW  HW  OW  HW  HW  OW  HW  HW  OW  HW  HW  OW  HW  HW  OW  
HW  HW  OW  HW  HW  OW  HW  HW  OW  HW  HW  OW  HW  HW  OW  HW  HW  OW  HW  HW  
OW  HW  HW  OW  HW  HW  OW  HW  HW  OW  HW  HW  OW  HW  HW  OW  HW  HW  OW  HW  
HW  OW  HW  HW  OW  HW  HW  OW  HW  HW  OW  HW  HW  OW  HW  HW  OW  HW  HW  OW  
HW  HW  OW  HW  HW  OW  HW  HW  OW  HW  HW  OW  HW  HW  OW  HW  HW  OW  HW  HW  
OW  HW  HW  OW  HW  HW  OW  HW  HW  OW  HW  HW  OW  HW  HW  OW  HW  HW  OW  HW  
HW  OW  HW  HW  OW  HW  HW  OW  HW  HW  OW  HW  HW  OW  HW  HW  OW  HW  HW  OW  
HW  HW  OW  HW  HW  OW  HW  HW  OW  HW  HW  OW  HW  HW  OW  HW  HW  OW  HW  HW  
OW  HW  HW  OW  HW  HW  OW  HW  HW  OW  HW  HW  OW  HW  HW  OW  HW  HW  OW  HW  
HW  OW  HW  HW  OW  HW  HW  OW  HW  HW  OW  HW  HW  OW  HW  HW  OW  HW  HW  OW  
HW  HW  OW  HW  HW  OW  HW  HW  OW  HW  HW  OW  HW  HW  OW  HW  HW  OW  HW  HW  
OW  HW  HW  OW  HW  HW  OW  HW  HW  OW  HW  HW  OW  HW  HW  OW  HW  HW  OW  HW  
HW  OW  HW  HW  OW  HW  HW  OW  HW  HW  OW  HW  HW  OW  HW  HW  OW  HW  HW  OW  
HW  HW  OW  HW  HW  OW  HW  HW  OW  HW  HW  OW  HW  HW  OW  HW  HW  OW  HW  HW  
OW  HW  HW  OW  HW  HW  OW  HW  HW  OW  HW  HW  OW  HW  HW  OW  HW  HW  OW  HW  
HW  OW  HW  HW  OW  HW  HW  OW  HW  HW  OW  HW  HW  OW  HW  HW  OW  HW  HW  OW  
HW  HW  OW  HW  HW  OW  HW  HW  OW  HW  HW  OW  HW  HW  OW  HW  HW  OW  HW  HW  
OW  HW  HW  OW  HW  HW  OW  HW  HW  OW  HW  HW  OW  HW  HW  OW  HW  HW  OW  HW  
HW  OW  HW  HW  OW  HW  HW  OW  HW  HW  OW  HW  HW  OW  HW  HW  OW  HW  HW  OW  
HW  HW  OW  HW  HW  OW  HW  HW  OW  HW  HW  OW  HW  HW  OW  HW  HW  OW  HW  HW  
OW  HW  HW  OW  HW  HW  OW  HW  HW  OW  HW  HW  OW  HW  HW  OW  HW  HW  OW  HW  
HW  OW  HW  HW  OW  HW  HW  OW  HW  HW  OW  HW  HW  OW  HW  HW  OW  HW  HW  OW  
HW  HW  OW  HW  HW  OW  HW  HW  OW  HW  HW  OW  HW  HW  OW  HW  HW  OW  HW  HW  
OW  HW  HW  OW  HW  HW  OW  HW  HW  OW  HW  HW  OW  HW  HW  OW  HW  HW  OW  HW  
HW  OW  HW  HW  OW  HW  HW  OW  HW  HW  OW  HW  HW  OW  HW  HW  OW  HW  HW  OW  
HW  HW  OW  HW  HW  OW  HW  HW  OW  HW  HW  OW  HW  HW  OW  HW  HW  OW  HW  HW  
OW  HW  HW  OW  HW  HW  OW  HW  HW  OW  HW  HW  OW  HW  HW  OW  HW  HW  OW  HW  
HW  OW  HW  HW  OW  HW  HW  OW  HW  HW  OW  HW  HW  OW  HW  HW  OW  HW  HW  OW  
HW  HW  OW  HW  HW  OW  HW  HW  OW  HW  HW  OW  HW  HW  OW  HW  HW  OW  HW  HW  
OW  HW  HW  OW  HW  HW  OW  HW  HW  OW  HW  HW  OW  HW  HW  OW  HW  HW  OW  HW  
HW  OW  HW  HW  OW  HW  HW  OW  HW  HW  OW  HW  HW  OW  HW  HW  OW  HW  HW  OW  
HW  HW  OW  HW  HW  OW  HW  HW  OW  HW  HW  OW  HW  HW  OW  HW  HW  OW  HW  HW  
OW  HW  HW  OW  HW  HW  OW  HW  HW  OW  HW  HW  OW  HW  HW  OW  HW  HW  OW  HW  
HW  OW  HW  HW  OW  HW  HW  OW  HW  HW  OW  HW  HW  OW  HW  HW  OW  HW  HW  OW  
HW  HW  OW  HW  HW  OW  HW  HW  OW  HW  HW  OW  HW  HW  OW  HW  HW  OW  HW  HW  
OW  HW  HW  OW  HW  HW  OW  HW  HW  OW  HW  HW  OW  HW  HW  OW  HW  HW  OW  HW  
HW  OW  HW  HW  OW  HW  HW  OW  HW  HW  OW  HW  HW  OW  HW  HW  OW  HW  HW  OW  
HW  HW  OW  HW  HW  OW  HW  HW  OW  HW  HW  OW  HW  HW  OW  HW  HW  OW  HW  HW  
OW  HW  HW  OW  HW  HW  OW  HW  HW  OW  HW  HW  OW  HW  HW  OW  HW  HW  OW  HW  
HW  OW  HW  HW  OW  HW  HW  OW  HW  HW  OW  HW  HW  OW  HW  HW  OW  HW  HW  OW  
HW  HW  OW  HW  HW  OW  HW  HW  OW  HW  HW  OW  HW  HW  OW  HW  HW  OW  HW  HW  
OW  HW  HW  OW  HW  HW  OW  HW  HW  OW  HW  HW  OW  HW  HW  OW  HW  HW  OW  HW  
HW  OW  HW  HW  OW  HW  HW  OW  HW  HW  OW  HW  HW  OW  HW  HW  OW  HW  HW  OW  
HW  HW  OW  HW  HW  OW  HW  HW  OW  HW  HW  OW  HW  HW  OW  HW  HW  OW  HW  HW  
OW  HW  HW  OW  HW  HW  OW  HW  HW  OW  HW  HW  OW  HW  HW  OW  HW  HW  OW  HW  
HW  OW  HW  HW  OW  HW  HW  OW  HW  HW  OW  HW  HW  OW  HW  HW  OW  HW  HW  OW  
HW  HW  OW  HW  HW  OW  HW  HW  OW  HW  HW  OW  HW  HW  OW  HW  HW  OW  HW  HW  
OW  HW  HW  OW  HW  HW  OW  HW  HW  OW  HW  HW  OW  HW  HW  OW  HW  HW  OW  HW  
HW  OW  HW  HW  OW  HW  HW  OW  HW  HW  OW  HW  HW  OW  HW  HW  OW  HW  HW  OW  
HW  HW  OW  HW  HW  OW  HW  HW  OW  HW  HW  OW  HW  HW  OW  HW  HW  OW  HW  HW  
OW  HW  HW  OW  HW  HW  OW  HW  HW  OW  HW  HW  OW  HW  HW  OW  HW  HW  OW  HW  
HW  OW  HW  HW  OW  HW  HW  OW  HW  HW  OW  HW  HW  OW  HW  HW  OW  HW  HW  OW  
HW  HW  OW  HW  HW  OW  HW  HW  OW  HW  HW  OW  HW  HW  OW  HW  HW  OW  HW  HW  
OW  HW  HW  OW  HW  HW  OW  HW  HW  OW  HW  HW  OW  HW  HW  OW  HW  HW  OW  HW  
HW  OW  HW  HW  OW  HW  HW  OW  HW  HW  OW  HW  HW  OW  HW  HW  OW  HW  HW  OW  
HW  HW  OW  HW  HW  OW  HW  HW  OW  HW  HW  OW  HW  HW  OW  HW  HW  OW  HW  HW  
OW  HW  HW  OW  HW  HW  OW  HW  HW  OW  HW  HW  OW  HW  HW  OW  HW  HW  OW  HW  
HW  OW  HW  HW  OW  HW  HW  OW  HW  HW  OW  HW  HW  OW  HW  HW  OW  HW  HW  OW  
HW  HW  OW  HW  HW  OW  HW  HW  OW  HW  HW  OW  HW  HW  OW  HW  HW  OW  HW  HW  
OW  HW  HW  OW  HW  HW  OW  HW  HW  OW  HW  HW  OW  HW  HW  OW  HW  HW  OW  HW  
HW  OW  HW  HW  OW  HW  HW  OW  HW  HW  OW  HW  HW  OW  HW  HW  OW  HW  HW  OW  
HW  HW  OW  HW  HW  OW  HW  HW  OW  HW  HW  OW  HW  HW  OW  HW  HW  OW  HW  HW  
OW  HW  HW  OW  HW  HW  OW  HW  HW  OW  HW  HW  OW  HW  HW  OW  HW  HW  OW  HW  
HW  OW  HW  HW  OW  HW  HW  OW  HW  HW  OW  HW  HW  OW  HW  HW  OW  HW  HW  OW  
HW  HW  OW  HW  HW  OW  HW  HW  OW  HW  HW  OW  HW  HW  OW  HW  HW  OW  HW  HW  
OW  HW  HW  OW  HW  HW  OW  HW  HW  OW  HW  HW  OW  HW  HW  OW  HW  HW  OW  HW  
HW  OW  HW  HW  OW  HW  HW  OW  HW  HW  OW  HW  HW  OW  HW  HW  OW  HW  HW  OW  
HW  HW  OW  HW  HW  OW  HW  HW  OW  HW  HW  OW  HW  HW  OW  HW  HW  OW  HW  HW  
OW  HW  HW  OW  HW  HW  OW  HW  HW  OW  HW  HW  OW  HW  HW  OW  HW  HW  OW  HW  
HW  OW  HW  HW  OW  HW  HW  OW  HW  HW  OW  HW  HW  OW  HW  HW  OW  HW  HW  OW  
HW  HW  OW  HW  HW  OW  HW  HW  OW  HW  HW  OW  HW  HW  OW  HW  HW  OW  HW  HW  
OW  HW  HW  OW  HW  HW  OW  HW  HW  OW  HW  HW  OW  HW  HW  OW  HW  HW  OW  HW  
HW  OW  HW  HW  OW  HW  HW  OW  HW  HW  OW  HW  HW  OW  HW  HW  OW  HW  HW  OW  
HW  HW  OW  HW  HW  OW  HW  HW  OW  HW  HW  OW  HW  HW  OW  HW  HW  OW  HW  HW  
OW  HW  HW  OW  HW  HW  OW  HW  HW  OW  HW  HW  OW  HW  HW  OW  HW  HW  OW  HW  
HW  OW  HW  HW  OW  HW  HW  OW  HW  HW  OW  HW  HW  OW  HW  HW  OW  HW  HW  OW  
HW  HW  OW  HW  HW  OW  HW  HW  OW  HW  HW  OW  HW  HW  OW  HW  HW  OW  HW  HW  
OW  HW  HW  OW  HW  HW  OW  HW  HW  OW  HW  HW  OW  HW  HW  OW  HW  HW  OW  HW  
HW  OW  HW  HW  OW  HW  HW  OW  HW  HW  OW  HW  HW  OW  HW  HW  OW  HW  HW  OW  
HW  HW  OW  HW  HW  OW  HW  HW  OW  HW  HW  OW  HW  HW  OW  HW  HW  OW  HW  HW  
OW  HW  HW  OW  HW  HW  OW  HW  HW  OW  HW  HW  OW  HW  HW  OW  HW  HW  OW  HW  
HW  OW  HW  HW  OW  HW  HW  OW  HW  HW  OW  HW  HW  OW  HW  HW  OW  HW  HW  OW  
HW  HW  OW  HW  HW  OW  HW  HW  OW  HW  HW  OW  HW  HW  OW  HW  HW  OW  HW  HW  
OW  HW  HW  OW  HW  HW  OW  HW  HW  OW  HW  HW  OW  HW  HW  OW  HW  HW  OW  HW  
HW  OW  HW  HW  OW  HW  HW  OW  HW  HW  OW  HW  HW  OW  HW  HW  OW  HW  HW  OW  
HW  HW  OW  HW  HW  OW  HW  HW  OW  HW  HW  OW  HW  HW  OW  HW  HW  OW  HW  HW  
OW  HW  HW  OW  HW  HW  OW  HW  HW  OW  HW  HW  OW  HW  HW  OW  HW  HW  OW  HW  
HW  OW  HW  HW  OW  HW  HW  OW  HW  HW  OW  HW  HW  OW  HW  HW  OW  HW  HW  OW  
HW  HW  OW  HW  HW  OW  HW  HW  OW  HW  HW  OW  HW  HW  OW  HW  HW  OW  HW  HW  
OW  HW  HW  OW  HW  HW  OW  HW  HW  OW  HW  HW  OW  HW  HW  OW  HW  HW  OW  HW  
HW  OW  HW  HW  OW  HW  HW  OW  HW  HW  OW  HW  HW  OW  HW  HW  OW  HW  HW  OW  
HW  HW  OW  HW  HW  OW  HW  HW  OW  HW  HW  OW  HW  HW  OW  HW  HW  OW  HW  HW  
OW  HW  HW  OW  HW  HW  OW  HW  HW  OW  HW  HW  OW  HW  HW  OW  HW  HW  OW  HW  
HW  OW  HW  HW  OW  HW  HW  OW  HW  HW  OW  HW  HW  OW  HW  HW  OW  HW  HW  OW  
HW  HW  OW  HW  HW  OW  HW  HW  OW  HW  HW  OW  HW  HW  OW  HW  HW  OW  HW  HW  
OW  HW  HW  OW  HW  HW  OW  HW  HW  OW  HW  HW  OW  HW  HW  OW  HW  HW  OW  HW  
HW  OW  HW  HW  OW  HW  HW  OW  HW  HW  OW  HW  HW  OW  HW  HW  OW  HW  HW  OW  
HW  HW  OW  HW  HW  OW  HW  HW  OW  HW  HW  OW  HW  HW  OW  HW  HW  OW  HW  HW  
OW  HW  HW  OW  HW  HW  OW  HW  HW  OW  HW  HW  OW  HW  HW  OW  HW  HW  OW  HW  
HW  OW  HW  HW  OW  HW  HW  OW  HW  HW  OW  HW  HW  OW  HW  HW  OW  HW  HW  OW  
HW  HW  OW  HW  HW  OW  HW  HW  OW  HW  HW  OW  HW  HW  OW  HW  HW  OW  HW  HW  
OW  HW  HW  OW  HW  HW  OW  HW  HW  OW  HW  HW  OW  HW  HW  OW  HW  HW  OW  HW  
HW  OW  HW  HW  OW  HW  HW  OW  HW  HW  OW  HW  HW  OW  HW  HW  OW  HW  HW  OW  
HW  HW  OW  HW  HW  OW  HW  HW  OW  HW  HW  OW  HW  HW  OW  HW  HW  OW  HW  HW  
OW  HW  HW  OW  HW  HW  OW  HW  HW  OW  HW  HW  OW  HW  HW  OW  HW  HW  OW  HW  
HW  OW  HW  HW  OW  HW  HW  OW  HW  HW  OW  HW  HW  OW  HW  HW  OW  HW  HW  OW  
HW  HW  OW  HW  HW  OW  HW  HW  OW  HW  HW  OW  HW  HW  OW  HW  HW  OW  HW  HW  
OW  HW  HW  OW  HW  HW  OW  HW  HW  OW  HW  HW  OW  HW  HW  OW  HW  HW  OW  HW  
HW  OW  HW  HW  OW  HW  HW  OW  HW  HW  OW  HW  HW  OW  HW  HW  OW  HW  HW  OW  
HW  HW  OW  HW  HW  OW  HW  HW  OW  HW  HW  OW  HW  HW  OW  HW  HW  OW  HW  HW  
OW  HW  HW  OW  HW  HW  OW  HW  HW  OW  HW  HW  OW  HW  HW  OW  HW  HW  OW  HW  
HW  OW  HW  HW  OW  HW  HW  OW  HW  HW  OW  HW  HW  OW  HW  HW  OW  HW  HW  OW  
HW  HW  OW  HW  HW  OW  HW  HW  OW  HW  HW  OW  HW  HW  OW  HW  HW  OW  HW  HW  
OW  HW  HW  OW  HW  HW  OW  HW  HW  OW  HW  HW  OW  HW  HW  OW  HW  HW  OW  HW  
HW  OW  HW  HW  OW  HW  HW  OW  HW  HW  OW  HW  HW  OW  HW  HW  OW  HW  HW  OW  
HW  HW  OW  HW  HW  OW  HW  HW  OW  HW  HW  OW  HW  HW  OW  HW  HW  OW  HW  HW  
OW  HW  HW  OW  HW  HW  OW  HW  HW  OW  HW  HW  OW  HW  HW  OW  HW  HW  OW  HW  
HW  OW  HW  HW  OW  HW  HW  OW  HW  HW  OW  HW  HW  OW  HW  HW  OW  HW  HW  OW  
HW  HW  OW  HW  HW  OW  HW  HW  OW  HW  HW  OW  HW  HW  OW  HW  HW  OW  HW  HW  
OW  HW  HW  OW  HW  HW  OW  HW  HW  OW  HW  HW  OW  HW  HW  OW  HW  HW  OW  HW  
HW  OW  HW  HW  OW  HW  HW  OW  HW  HW  OW  HW  HW  OW  HW  HW  OW  HW  HW  OW  
HW  HW  OW  HW  HW  OW  HW  HW  OW  HW  HW  OW  HW  HW  OW  HW  HW  OW  HW  HW  
OW  HW  HW  OW  HW  HW  OW  HW  HW  OW  HW  HW  OW  HW  HW  OW  HW  HW  OW  HW  
HW  OW  HW  HW  OW  HW  HW  OW  HW  HW  OW  HW  HW  OW  HW  HW  OW  HW  HW  OW  
HW  HW  OW  HW  HW  OW  HW  HW  OW  HW  HW  OW  HW  HW  OW  HW  HW  OW  HW  HW  
OW  HW  HW  OW  HW  HW  OW  HW  HW  OW  HW  HW  OW  HW  HW  OW  HW  HW  OW  HW  
HW  OW  HW  HW  OW  HW  HW  OW  HW  HW  OW  HW  HW  OW  HW  HW  OW  HW  HW  OW  
HW  HW  OW  HW  HW  OW  HW  HW  OW  HW  HW  OW  HW  HW  OW  HW  HW  OW  HW  HW  
OW  HW  HW  OW  HW  HW  OW  HW  HW  OW  HW  HW  OW  HW  HW  OW  HW  HW  OW  HW  
HW  OW  HW  HW  OW  HW  HW  OW  HW  HW  OW  HW  HW  OW  HW  HW  OW  HW  HW  OW  
HW  HW  OW  HW  HW  OW  HW  HW  OW  HW  HW  OW  HW  HW  OW  HW  HW  OW  HW  HW  
OW  HW  HW  OW  HW  HW  OW  HW  HW  OW  HW  HW  OW  HW  HW  OW  HW  HW  OW  HW  
HW  OW  HW  HW  OW  HW  HW  OW  HW  HW  OW  HW  HW  OW  HW  HW  OW  HW  HW  OW  
HW  HW  OW  HW  HW  OW  HW  HW  OW  HW  HW  OW  HW  HW  OW  HW  HW  OW  HW  HW  
OW  HW  HW  OW  HW  HW  OW  HW  HW  OW  HW  HW  OW  HW  HW  OW  HW  HW  OW  HW  
HW  OW  HW  HW  OW  HW  HW  OW  HW  HW  OW  HW  HW  OW  HW  HW  OW  HW  HW  OW  
HW  HW  OW  HW  HW  OW  HW  HW  OW  HW  HW  OW  HW  HW  OW  HW  HW  OW  HW  HW  
OW  HW  HW  OW  HW  HW  OW  HW  HW  OW  HW  HW  OW  HW  HW  OW  HW  HW  OW  HW  
HW  OW  HW  HW  OW  HW  HW  OW  HW  HW  OW  HW  HW  OW  HW  HW  OW  HW  HW  OW  
HW  HW  OW  HW  HW  OW  HW  HW  OW  HW  HW  OW  HW  HW  OW  HW  HW  OW  HW  HW  
OW  HW  HW  OW  HW  HW  OW  HW  HW  OW  HW  HW  OW  HW  HW  OW  HW  HW  OW  HW  
HW  OW  HW  HW  OW  HW  HW  OW  HW  HW  OW  HW  HW  OW  HW  HW  OW  HW  HW  OW  
HW  HW  OW  HW  HW  OW  HW  HW  OW  HW  HW  OW  HW  HW  OW  HW  HW  OW  HW  HW  
OW  HW  HW  OW  HW  HW  OW  HW  HW  OW  HW  HW  OW  HW  HW  OW  HW  HW  OW  HW  
HW  OW  HW  HW  OW  HW  HW  OW  HW  HW  OW  HW  HW  OW  HW  HW  OW  HW  HW  OW  
HW  HW  OW  HW  HW  OW  HW  HW  OW  HW  HW  OW  HW  HW  OW  HW  HW  OW  HW  HW  
OW  HW  HW  OW  HW  HW  OW  HW  HW  OW  HW  HW  OW  HW  HW  OW  HW  HW  OW  HW  
HW  OW  HW  HW  OW  HW  HW  OW  HW  HW  OW  HW  HW  OW  HW  HW  OW  HW  HW  OW  
HW  HW  OW  HW  HW  OW  HW  HW  OW  HW  HW  OW  HW  HW  OW  HW  HW  OW  HW  HW  
OW  HW  HW  OW  HW  HW  OW  HW  HW  OW  HW  HW  OW  HW  HW  OW  HW  HW  OW  HW  
HW  OW  HW  HW  OW  HW  HW  OW  HW  HW  OW  HW  HW  OW  HW  HW  OW  HW  HW  OW  
HW  HW  OW  HW  HW  OW  HW  HW  OW  HW  HW  OW  HW  HW  OW  HW  HW  OW  HW  HW  
OW  HW  HW  OW  HW  HW  OW  HW  HW  OW  HW  HW  OW  HW  HW  OW  HW  HW  OW  HW  
HW  OW  HW  HW  OW  HW  HW  OW  HW  HW  OW  HW  HW  OW  HW  HW  OW  HW  HW  OW  
HW  HW  OW  HW  HW  OW  HW  HW  OW  HW  HW  OW  HW  HW  OW  HW  HW  OW  HW  HW  
OW  HW  HW  OW  HW  HW  OW  HW  HW  OW  HW  HW  OW  HW  HW  OW  HW  HW  OW  HW  
HW  OW  HW  HW  OW  HW  HW  OW  HW  HW  OW  HW  HW  OW  HW  HW  OW  HW  HW  OW  
HW  HW  OW  HW  HW  OW  HW  HW  OW  HW  HW  OW  HW  HW  OW  HW  HW  OW  HW  HW  
OW  HW  HW  OW  HW  HW  OW  HW  HW  OW  HW  HW  OW  HW  HW  OW  HW  HW  OW  HW  
HW  OW  HW  HW  OW  HW  HW  OW  HW  HW  OW  HW  HW  OW  HW  HW  OW  HW  HW  OW  
HW  HW  OW  HW  HW  OW  HW  HW  OW  HW  HW  OW  HW  HW  OW  HW  HW  OW  HW  HW  
OW  HW  HW  OW  HW  HW  OW  HW  HW  OW  HW  HW  OW  HW  HW  OW  HW  HW  OW  HW  
HW  OW  HW  HW  OW  HW  HW  OW  HW  HW  OW  HW  HW  OW  HW  HW  OW  HW  HW  OW  
HW  HW  OW  HW  HW  OW  HW  HW  OW  HW  HW  OW  HW  HW  OW  HW  HW  OW  HW  HW  
OW  HW  HW  OW  HW  HW  OW  HW  HW  OW  HW  HW  OW  HW  HW  OW  HW  HW  OW  HW  
HW  OW  HW  HW  OW  HW  HW  OW  HW  HW  OW  HW  HW  OW  HW  HW  OW  HW  HW  OW  
HW  HW  OW  HW  HW  OW  HW  HW  OW  HW  HW  OW  HW  HW  OW  HW  HW  OW  HW  HW  
OW  HW  HW  OW  HW  HW  OW  HW  HW  OW  HW  HW  OW  HW  HW  OW  HW  HW  OW  HW  
HW  OW  HW  HW  OW  HW  HW  OW  HW  HW  OW  HW  HW  OW  HW  HW  OW  HW  HW  OW  
HW  HW  OW  HW  HW  OW  HW  HW  OW  HW  HW  OW  HW  HW  OW  HW  HW  OW  HW  HW  
OW  HW  HW  OW  HW  HW  OW  HW  HW  OW  HW  HW  OW  HW  HW  OW  HW  HW  OW  HW  
HW  OW  HW  HW  OW  HW  HW  OW  HW  HW  OW  HW  HW  OW  HW  HW  OW  HW  HW  OW  
HW  HW  OW  HW  HW  OW  HW  HW  OW  HW  HW  OW  HW  HW  OW  HW  HW  OW  HW  HW  
OW  HW  HW  OW  HW  HW  OW  HW  HW  OW  HW  HW  OW  HW  HW  OW  HW  HW  OW  HW  
HW  OW  HW  HW  OW  HW  HW  OW  HW  HW  OW  HW  HW  OW  HW  HW  OW  HW  HW  OW  
HW  HW  OW  HW  HW  OW  HW  HW  OW  HW  HW  OW  HW  HW  OW  HW  HW  OW  HW  HW  
OW  HW  HW  OW  HW  HW  OW  HW  HW  OW  HW  HW  OW  HW  HW  OW  HW  HW  OW  HW  
HW  OW  HW  HW  OW  HW  HW  OW  HW  HW  OW  HW  HW  OW  HW  HW  OW  HW  HW  OW  
HW  HW  OW  HW  HW  OW  HW  HW  OW  HW  HW  OW  HW  HW  OW  HW  HW  OW  HW  HW  
OW  HW  HW  OW  HW  HW  OW  HW  HW  OW  HW  HW  OW  HW  HW  OW  HW  HW  OW  HW  
HW  OW  HW  HW  OW  HW  HW  OW  HW  HW  OW  HW  HW  OW  HW  HW  OW  HW  HW  OW  
HW  HW  OW  HW  HW  OW  HW  HW  OW  HW  HW  OW  HW  HW  OW  HW  HW  OW  HW  HW  
OW  HW  HW  OW  HW  HW  OW  HW  HW  OW  HW  HW  OW  HW  HW  OW  HW  HW  OW  HW  
HW  OW  HW  HW  OW  HW  HW  OW  HW  HW  OW  HW  HW  OW  HW  HW  OW  HW  HW  OW  
HW  HW  OW  HW  HW  OW  HW  HW  OW  HW  HW  OW  HW  HW  OW  HW  HW  OW  HW  HW  
OW  HW  HW  OW  HW  HW  OW  HW  HW  OW  HW  HW  OW  HW  HW  OW  HW  HW  OW  HW  
HW  OW  HW  HW  OW  HW  HW  OW  HW  HW  OW  HW  HW  OW  HW  HW  OW  HW  HW  OW  
HW  HW  OW  HW  HW  OW  HW  HW  OW  HW  HW  OW  HW  HW  OW  HW  HW  OW  HW  HW  
OW  HW  HW  OW  HW  HW  OW  HW  HW  OW  HW  HW  OW  HW  HW  OW  HW  HW  OW  HW  
HW  OW  HW  HW  OW  HW  HW  OW  HW  HW  OW  HW  HW  OW  HW  HW  OW  HW  HW  OW  
HW  HW  OW  HW  HW  OW  HW  HW  OW  HW  HW  OW  HW  HW  OW  HW  HW  OW  HW  HW  
OW  HW  HW  OW  HW  HW  OW  HW  HW  OW  HW  HW  OW  HW  HW  OW  HW  HW  OW  HW  
HW  OW  HW  HW  OW  HW  HW  OW  HW  HW  OW  HW  HW  OW  HW  HW  OW  HW  HW  OW  
HW  HW  OW  HW  HW  OW  HW  HW  OW  HW  HW  OW  HW  HW  OW  HW  HW  OW  HW  HW  
OW  HW  HW  OW  HW  HW  OW  HW  HW  OW  HW  HW  OW  HW  HW  OW  HW  HW  OW  HW  
HW  OW  HW  HW  OW  HW  HW  OW  HW  HW  OW  HW  HW  OW  HW  HW  OW  HW  HW  OW  
HW  HW  OW  HW  HW  OW  HW  HW  OW  HW  HW  OW  HW  HW  OW  HW  HW  OW  HW  HW  
OW  HW  HW  OW  HW  HW  OW  HW  HW  OW  HW  HW  OW  HW  HW  OW  HW  HW  OW  HW  
HW  OW  HW  HW  OW  HW  HW  OW  HW  HW  OW  HW  HW  OW  HW  HW  OW  HW  HW  OW  
HW  HW  OW  HW  HW  OW  HW  HW  OW  HW  HW  OW  HW  HW  OW  HW  HW  OW  HW  HW  
OW  HW  HW  OW  HW  HW  OW  HW  HW  OW  HW  HW  OW  HW  HW  OW  HW  HW  OW  HW  
HW  OW  HW  HW  OW  HW  HW  OW  HW  HW  OW  HW  HW  OW  HW  HW  OW  HW  HW  OW  
HW  HW  OW  HW  HW  OW  HW  HW  OW  HW  HW  OW  HW  HW  OW  HW  HW  OW  HW  HW  
OW  HW  HW  OW  HW  HW  OW  HW  HW  OW  HW  HW  OW  HW  HW  OW  HW  HW  OW  HW  
HW  OW  HW  HW  OW  HW  HW  OW  HW  HW  OW  HW  HW  OW  HW  HW  OW  HW  HW  OW  
HW  HW  OW  HW  HW  OW  HW  HW  OW  HW  HW  OW  HW  HW  OW  HW  HW  OW  HW  HW  
OW  HW  HW  OW  HW  HW  OW  HW  HW  OW  HW  HW  OW  HW  HW  OW  HW  HW  OW  HW  
HW  OW  HW  HW  OW  HW  HW  OW  HW  HW  OW  HW  HW  OW  HW  HW  OW  HW  HW  OW  
HW  HW  OW  HW  HW  OW  HW  HW  OW  HW  HW  OW  HW  HW  OW  HW  HW  OW  HW  HW  
OW  HW  HW  OW  HW  HW  OW  HW  HW  OW  HW  HW  OW  HW  HW  OW  HW  HW  OW  HW  
HW  OW  HW  HW  OW  HW  HW  OW  HW  HW  OW  HW  HW  OW  HW  HW  OW  HW  HW  OW  
HW  HW  OW  HW  HW  OW  HW  HW  OW  HW  HW  OW  HW  HW  OW  HW  HW  OW  HW  HW  
OW  HW  HW  OW  HW  HW  OW  HW  HW  OW  HW  HW  OW  HW  HW  OW  HW  HW  OW  HW  
HW  OW  HW  HW  OW  HW  HW  OW  HW  HW  OW  HW  HW  OW  HW  HW  OW  HW  HW  OW  
HW  HW  OW  HW  HW  OW  HW  HW  OW  HW  HW  OW  HW  HW  OW  HW  HW  OW  HW  HW  
OW  HW  HW  OW  HW  HW  OW  HW  HW  OW  HW  HW  OW  HW  HW  OW  HW  HW  OW  HW  
HW  OW  HW  HW  OW  HW  HW  OW  HW  HW  OW  HW  HW  OW  HW  HW  OW  HW  HW  OW  
HW  HW  OW  HW  HW  OW  HW  HW  OW  HW  HW  OW  HW  HW  OW  HW  HW  OW  HW  HW  
OW  HW  HW  OW  HW  HW  OW  HW  HW  OW  HW  HW  OW  HW  HW  OW  HW  HW  OW  HW  
HW  OW  HW  HW  OW  HW  HW  OW  HW  HW  OW  HW  HW  OW  HW  HW  OW  HW  HW  OW  
HW  HW  OW  HW  HW  OW  HW  HW  OW  HW  HW  OW  HW  HW  OW  HW  HW  OW  HW  HW  
OW  HW  HW  OW  HW  HW  OW  HW  HW  OW  HW  HW  OW  HW  HW  OW  HW  HW  OW  HW  
HW  OW  HW  HW  OW  HW  HW  OW  HW  HW  OW  HW  HW  OW  HW  HW  OW  HW  HW  OW  
HW  HW  OW  HW  HW  OW  HW  HW  OW  HW  HW  OW  HW  HW  OW  HW  HW  OW  HW  HW  
OW  HW  HW  OW  HW  HW  OW  HW  HW  OW  HW  HW  OW  HW  HW  OW  HW  HW  OW  HW  
HW  OW  HW  HW  OW  HW  HW  OW  HW  HW  OW  HW  HW  OW  HW  HW  OW  HW  HW  OW  
HW  HW  OW  HW  HW  OW  HW  HW  OW  HW  HW  OW  HW  HW  OW  HW  HW  OW  HW  HW  
OW  HW  HW  OW  HW  HW  OW  HW  HW  OW  HW  HW  OW  HW  HW  OW  HW  HW  OW  HW  
HW  OW  HW  HW  OW  HW  HW  OW  HW  HW  OW  HW  HW  OW  HW  HW  OW  HW  HW  OW  
HW  HW  OW  HW  HW  OW  HW  HW  OW  HW  HW  OW  HW  HW  OW  HW  HW  OW  HW  HW  
OW  HW  HW  OW  HW  HW  OW  HW  HW  OW  HW  HW  OW  HW  HW  OW  HW  HW  OW  HW  
HW  OW  HW  HW  OW  HW  HW  OW  HW  HW  OW  HW  HW  OW  HW  HW  OW  HW  HW  OW  
HW  HW  OW  HW  HW  OW  HW  HW  OW  HW  HW  OW  HW  HW  OW  HW  HW  OW  HW  HW  
OW  HW  HW  OW  HW  HW  OW  HW  HW  OW  HW  HW  OW  HW  HW  OW  HW  HW  OW  HW  
HW  OW  HW  HW  OW  HW  HW  OW  HW  HW  OW  HW  HW  OW  HW  HW  OW  HW  HW  OW  
HW  HW  OW  HW  HW  OW  HW  HW  OW  HW  HW  OW  HW  HW  OW  HW  HW  OW  HW  HW  
OW  HW  HW  OW  HW  HW  OW  HW  HW  OW  HW  HW  OW  HW  HW  OW  HW  HW  OW  HW  
HW  OW  HW  HW  OW  HW  HW  OW  HW  HW  OW  HW  HW  OW  HW  HW  OW  HW  HW  OW  
HW  HW  OW  HW  HW  OW  HW  HW  OW  HW  HW  OW  HW  HW  OW  HW  HW  OW  HW  HW  
OW  HW  HW  OW  HW  HW  OW  HW  HW  OW  HW  HW  OW  HW  HW  OW  HW  HW  OW  HW  
HW  OW  HW  HW  OW  HW  HW  OW  HW  HW  OW  HW  HW  OW  HW  HW  OW  HW  HW  OW  
HW  HW  OW  HW  HW  OW  HW  HW  OW  HW  HW  OW  HW  HW  OW  HW  HW  OW  HW  HW  
OW  HW  HW  OW  HW  HW  OW  HW  HW  OW  HW  HW  OW  HW  HW  OW  HW  HW  OW  HW  
HW  OW  HW  HW  OW  HW  HW  OW  HW  HW  OW  HW  HW  OW  HW  HW  OW  HW  HW  OW  
HW  HW  OW  HW  HW  OW  HW  HW  OW  HW  HW  OW  HW  HW  OW  HW  HW  OW  HW  HW  
OW  HW  HW  OW  HW  HW  OW  HW  HW  OW  HW  HW  OW  HW  HW  OW  HW  HW  OW  HW  
HW  OW  HW  HW  OW  HW  HW  OW  HW  HW  OW  HW  HW  OW  HW  HW  OW  HW  HW  OW  
HW  HW  OW  HW  HW  OW  HW  HW  OW  HW  HW  OW  HW  HW  OW  HW  HW  OW  HW  HW  
OW  HW  HW  OW  HW  HW  OW  HW  HW  OW  HW  HW  OW  HW  HW  OW  HW  HW  OW  HW  
HW  OW  HW  HW  OW  HW  HW  OW  HW  HW  OW  HW  HW  OW  HW  HW  OW  HW  HW  OW  
HW  HW  OW  HW  HW  OW  HW  HW  OW  HW  HW  OW  HW  HW  OW  HW  HW  OW  HW  HW  
OW  HW  HW  OW  HW  HW  OW  HW  HW  OW  HW  HW  OW  HW  HW  OW  HW  HW  OW  HW  
HW  OW  HW  HW  OW  HW  HW  OW  HW  HW  OW  HW  HW  OW  HW  HW  OW  HW  HW  OW  
HW  HW  OW  HW  HW  OW  HW  HW  OW  HW  HW  OW  HW  HW  OW  HW  HW  OW  HW  HW  
OW  HW  HW  OW  HW  HW  OW  HW  HW  OW  HW  HW  OW  HW  HW  OW  HW  HW  OW  HW  
HW  OW  HW  HW  OW  HW  HW  OW  HW  HW  OW  HW  HW  OW  HW  HW  OW  HW  HW  OW  
HW  HW  OW  HW  HW  OW  HW  HW  OW  HW  HW  OW  HW  HW  OW  HW  HW  OW  HW  HW  
OW  HW  HW  OW  HW  HW  OW  HW  HW  OW  HW  HW  OW  HW  HW  OW  HW  HW  OW  HW  
HW  OW  HW  HW  OW  HW  HW  OW  HW  HW  OW  HW  HW  OW  HW  HW  OW  HW  HW  OW  
HW  HW  OW  HW  HW  OW  HW  HW  OW  HW  HW  OW  HW  HW  OW  HW  HW  OW  HW  HW  
OW  HW  HW  OW  HW  HW  OW  HW  HW  OW  HW  HW  OW  HW  HW  OW  HW  HW  OW  HW  
HW  OW  HW  HW  OW  HW  HW  OW  HW  HW  OW  HW  HW  OW  HW  HW  OW  HW  HW  OW  
HW  HW  OW  HW  HW  OW  HW  HW  OW  HW  HW  OW  HW  HW  OW  HW  HW  OW  HW  HW  
OW  HW  HW  OW  HW  HW  OW  HW  HW  OW  HW  HW  OW  HW  HW  OW  HW  HW  OW  HW  
HW  OW  HW  HW  OW  HW  HW  OW  HW  HW  OW  HW  HW  OW  HW  HW  OW  HW  HW  OW  
HW  HW  OW  HW  HW  OW  HW  HW  OW  HW  HW  OW  HW  HW  OW  HW  HW  OW  HW  HW  
OW  HW  HW  OW  HW  HW  OW  HW  HW  OW  HW  HW  OW  HW  HW  OW  HW  HW  OW  HW  
HW  OW  HW  HW  OW  HW  HW  OW  HW  HW  OW  HW  HW  OW  HW  HW  OW  HW  HW  OW  
HW  HW  OW  HW  HW  OW  HW  HW  OW  HW  HW  OW  HW  HW  OW  HW  HW  OW  HW  HW  
OW  HW  HW  OW  HW  HW  OW  HW  HW  OW  HW  HW  OW  HW  HW  OW  HW  HW  OW  HW  
HW  OW  HW  HW  OW  HW  HW  OW  HW  HW  OW  HW  HW  OW  HW  HW  OW  HW  HW  OW  
HW  HW  OW  HW  HW  OW  HW  HW  OW  HW  HW  OW  HW  HW  OW  HW  HW  OW  HW  HW  
OW  HW  HW  OW  HW  HW  OW  HW  HW  OW  HW  HW  OW  HW  HW  OW  HW  HW  OW  HW  
HW  OW  HW  HW  OW  HW  HW  OW  HW  HW  OW  HW  HW  OW  HW  HW  OW  HW  HW  OW  
HW  HW  OW  HW  HW  OW  HW  HW  OW  HW  HW  OW  HW  HW  OW  HW  HW  OW  HW  HW  
OW  HW  HW  OW  HW  HW  OW  HW  HW  OW  HW  HW  OW  HW  HW  OW  HW  HW  OW  HW  
HW  OW  HW  HW  OW  HW  HW  OW  HW  HW  OW  HW  HW  OW  HW  HW  OW  HW  HW  OW  
HW  HW  OW  HW  HW  OW  HW  HW  OW  HW  HW  OW  HW  HW  OW  HW  HW  OW  HW  HW  
OW  HW  HW  OW  HW  HW  OW  HW  HW  OW  HW  HW  OW  HW  HW  OW  HW  HW  OW  HW  
HW  OW  HW  HW  OW  HW  HW  OW  HW  HW  OW  HW  HW  OW  HW  HW  OW  HW  HW  OW  
HW  HW  OW  HW  HW  OW  HW  HW  OW  HW  HW  OW  HW  HW  OW  HW  HW  OW  HW  HW  
OW  HW  HW  OW  HW  HW  OW  HW  HW  OW  HW  HW  OW  HW  HW  OW  HW  HW  OW  HW  
HW  OW  HW  HW  OW  HW  HW  OW  HW  HW  OW  HW  HW  OW  HW  HW  OW  HW  HW  OW  
HW  HW  OW  HW  HW  OW  HW  HW  OW  HW  HW  OW  HW  HW  OW  HW  HW  OW  HW  HW  
OW  HW  HW  OW  HW  HW  OW  HW  HW  OW  HW  HW  OW  HW  HW  OW  HW  HW  OW  HW  
HW  OW  HW  HW  OW  HW  HW  OW  HW  HW  OW  HW  HW  OW  HW  HW  OW  HW  HW  OW  
HW  HW  OW  HW  HW  OW  HW  HW  OW  HW  HW  OW  HW  HW  OW  HW  HW  OW  HW  HW  
OW  HW  HW  OW  HW  HW  OW  HW  HW  OW  HW  HW  OW  HW  HW  OW  HW  HW  OW  HW  
HW  OW  HW  HW  OW  HW  HW  OW  HW  HW  OW  HW  HW  OW  HW  HW  OW  HW  HW  OW  
HW  HW  OW  HW  HW  OW  HW  HW  OW  HW  HW  OW  HW  HW  OW  HW  HW  OW  HW  HW  
OW  HW  HW  OW  HW  HW  OW  HW  HW  OW  HW  HW  OW  HW  HW  OW  HW  HW  OW  HW  
HW  OW  HW  HW  OW  HW  HW  OW  HW  HW  OW  HW  HW  OW  HW  HW  OW  HW  HW  OW  
HW  HW  OW  HW  HW  OW  HW  HW  OW  HW  HW  OW  HW  HW  OW  HW  HW  OW  HW  HW  
OW  HW  HW  OW  HW  HW  OW  HW  HW  OW  HW  HW  OW  HW  HW  OW  HW  HW  OW  HW  
HW  OW  HW  HW  OW  HW  HW  OW  HW  HW  OW  HW  HW  OW  HW  HW  OW  HW  HW  OW  
HW  HW  OW  HW  HW  OW  HW  HW  OW  HW  HW  OW  HW  HW  OW  HW  HW  OW  HW  HW  
OW  HW  HW  OW  HW  HW  OW  HW  HW  OW  HW  HW  OW  HW  HW  OW  HW  HW  OW  HW  
HW  OW  HW  HW  OW  HW  HW  OW  HW  HW  OW  HW  HW  OW  HW  HW  OW  HW  HW  OW  
HW  HW  OW  HW  HW  OW  HW  HW  OW  HW  HW  OW  HW  HW  OW  HW  HW  OW  HW  HW  
OW  HW  HW  OW  HW  HW  OW  HW  HW  OW  HW  HW  OW  HW  HW  OW  HW  HW  OW  HW  
HW  OW  HW  HW  OW  HW  HW  OW  HW  HW  OW  HW  HW  OW  HW  HW  OW  HW  HW  OW  
HW  HW  OW  HW  HW  OW  HW  HW  OW  HW  HW  OW  HW  HW  OW  HW  HW  OW  HW  HW  
OW  HW  HW  OW  HW  HW  OW  HW  HW  OW  HW  HW  OW  HW  HW  OW  HW  HW  OW  HW  
HW  OW  HW  HW  OW  HW  HW  OW  HW  HW  OW  HW  HW  OW  HW  HW  OW  HW  HW  OW  
HW  HW  OW  HW  HW  OW  HW  HW  OW  HW  HW  OW  HW  HW  OW  HW  HW  OW  HW  HW  
OW  HW  HW  OW  HW  HW  OW  HW  HW  OW  HW  HW  OW  HW  HW  OW  HW  HW  OW  HW  
HW  OW  HW  HW  OW  HW  HW  OW  HW  HW  OW  HW  HW  OW  HW  HW  OW  HW  HW  OW  
HW  HW  OW  HW  HW  OW  HW  HW  OW  HW  HW  OW  HW  HW  OW  HW  HW  OW  HW  HW  
OW  HW  HW  OW  HW  HW  OW  HW  HW  OW  HW  HW  OW  HW  HW  OW  HW  HW  OW  HW  
HW  OW  HW  HW  OW  HW  HW  OW  HW  HW  OW  HW  HW  OW  HW  HW  OW  HW  HW  OW  
HW  HW  OW  HW  HW  OW  HW  HW  OW  HW  HW  OW  HW  HW  OW  HW  HW  OW  HW  HW  
OW  HW  HW  OW  HW  HW  OW  HW  HW  OW  HW  HW  OW  HW  HW  OW  HW  HW  OW  HW  
HW  OW  HW  HW  OW  HW  HW  OW  HW  HW  OW  HW  HW  OW  HW  HW  OW  HW  HW  OW  
HW  HW  OW  HW  HW  OW  HW  HW  OW  HW  HW  OW  HW  HW  OW  HW  HW  OW  HW  HW  
OW  HW  HW  OW  HW  HW  OW  HW  HW  OW  HW  HW  OW  HW  HW  OW  HW  HW  OW  HW  
HW  OW  HW  HW  OW  HW  HW  OW  HW  HW  OW  HW  HW  OW  HW  HW  OW  HW  HW  OW  
HW  HW  OW  HW  HW  OW  HW  HW  OW  HW  HW  OW  HW  HW  OW  HW  HW  OW  HW  HW  
OW  HW  HW  OW  HW  HW  OW  HW  HW  OW  HW  HW  OW  HW  HW  OW  HW  HW  OW  HW  
HW  OW  HW  HW  OW  HW  HW  OW  HW  HW  OW  HW  HW  OW  HW  HW  OW  HW  HW  OW  
HW  HW  OW  HW  HW  OW  HW  HW  OW  HW  HW  OW  HW  HW  OW  HW  HW  OW  HW  HW  
OW  HW  HW  OW  HW  HW  OW  HW  HW  OW  HW  HW  OW  HW  HW  OW  HW  HW  OW  HW  
HW  OW  HW  HW  OW  HW  HW  OW  HW  HW  OW  HW  HW  OW  HW  HW  OW  HW  HW  OW  
HW  HW  OW  HW  HW  OW  HW  HW  OW  HW  HW  OW  HW  HW  OW  HW  HW  OW  HW  HW  
OW  HW  HW  OW  HW  HW  OW  HW  HW  OW  HW  HW  OW  HW  HW  OW  HW  HW  OW  HW  
HW  OW  HW  HW  OW  HW  HW  OW  HW  HW  OW  HW  HW  OW  HW  HW  OW  HW  HW  OW  
HW  HW  OW  HW  HW  OW  HW  HW  OW  HW  HW  OW  HW  HW  OW  HW  HW  OW  HW  HW  
OW  HW  HW  OW  HW  HW  OW  HW  HW  OW  HW  HW  OW  HW  HW  OW  HW  HW  OW  HW  
HW  OW  HW  HW  OW  HW  HW  OW  HW  HW  OW  HW  HW  OW  HW  HW  OW  HW  HW  OW  
HW  HW  OW  HW  HW  OW  HW  HW  OW  HW  HW  OW  HW  HW  OW  HW  HW  OW  HW  HW  
OW  HW  HW  OW  HW  HW  OW  HW  HW  OW  HW  HW  OW  HW  HW  OW  HW  HW  OW  HW  
HW  OW  HW  HW  OW  HW  HW  OW  HW  HW  OW  HW  HW  OW  HW  HW  OW  HW  HW  OW  
HW  HW  OW  HW  HW  OW  HW  HW  OW  HW  HW  OW  HW  HW  OW  HW  HW  OW  HW  HW  
OW  HW  HW  OW  HW  HW  OW  HW  HW  OW  HW  HW  OW  HW  HW  OW  HW  HW  OW  HW  
HW  OW  HW  HW  OW  HW  HW  OW  HW  HW  OW  HW  HW  OW  HW  HW  OW  HW  HW  OW  
HW  HW  OW  HW  HW  OW  HW  HW  OW  HW  HW  OW  HW  HW  OW  HW  HW  OW  HW  HW  
OW  HW  HW  OW  HW  HW  OW  HW  HW  OW  HW  HW  OW  HW  HW  OW  HW  HW  OW  HW  
HW  OW  HW  HW  OW  HW  HW  OW  HW  HW  OW  HW  HW  OW  HW  HW  OW  HW  HW  OW  
HW  HW  OW  HW  HW  OW  HW  HW  OW  HW  HW  OW  HW  HW  OW  HW  HW  OW  HW  HW  
OW  HW  HW  OW  HW  HW  OW  HW  HW  OW  HW  HW  OW  HW  HW  OW  HW  HW  OW  HW  
HW  OW  HW  HW  OW  HW  HW  OW  HW  HW  OW  HW  HW  OW  HW  HW  OW  HW  HW  OW  
HW  HW  OW  HW  HW  OW  HW  HW  OW  HW  HW  OW  HW  HW  OW  HW  HW  OW  HW  HW  
OW  HW  HW  OW  HW  HW  OW  HW  HW  OW  HW  HW  OW  HW  HW  OW  HW  HW  OW  HW  
HW  OW  HW  HW  OW  HW  HW  OW  HW  HW  OW  HW  HW  OW  HW  HW  OW  HW  HW  OW  
HW  HW  OW  HW  HW  OW  HW  HW  OW  HW  HW  OW  HW  HW  OW  HW  HW  OW  HW  HW  
OW  HW  HW  OW  HW  HW  OW  HW  HW  OW  HW  HW  OW  HW  HW  OW  HW  HW  OW  HW  
HW  OW  HW  HW  OW  HW  HW  OW  HW  HW  OW  HW  HW  OW  HW  HW  OW  HW  HW  OW  
HW  HW  OW  HW  HW  OW  HW  HW  OW  HW  HW  OW  HW  HW  OW  HW  HW  OW  HW  HW  
OW  HW  HW  OW  HW  HW  OW  HW  HW  OW  HW  HW  OW  HW  HW  OW  HW  HW  OW  HW  
HW  OW  HW  HW  OW  HW  HW  OW  HW  HW  OW  HW  HW  OW  HW  HW  OW  HW  HW  OW  
HW  HW  OW  HW  HW  OW  HW  HW  OW  HW  HW  OW  HW  HW  OW  HW  HW  OW  HW  HW  
OW  HW  HW  OW  HW  HW  OW  HW  HW  OW  HW  HW  OW  HW  HW  OW  HW  HW  OW  HW  
HW  OW  HW  HW  OW  HW  HW  OW  HW  HW  OW  HW  HW  OW  HW  HW  OW  HW  HW  OW  
HW  HW  OW  HW  HW  OW  HW  HW  OW  HW  HW  OW  HW  HW  OW  HW  HW  OW  HW  HW  
OW  HW  HW  OW  HW  HW  OW  HW  HW  OW  HW  HW  OW  HW  HW  OW  HW  HW  OW  HW  
HW  OW  HW  HW  OW  HW  HW  OW  HW  HW  OW  HW  HW  OW  HW  HW  OW  HW  HW  OW  
HW  HW  OW  HW  HW  OW  HW  HW  OW  HW  HW  OW  HW  HW  OW  HW  HW  OW  HW  HW  
OW  HW  HW  OW  HW  HW  OW  HW  HW  OW  HW  HW  OW  HW  HW  OW  HW  HW  OW  HW  
HW  OW  HW  HW  OW  HW  HW  OW  HW  HW  OW  HW  HW  OW  HW  HW  OW  HW  HW  OW  
HW  HW  OW  HW  HW  OW  HW  HW  OW  HW  HW  OW  HW  HW  OW  HW  HW  OW  HW  HW  
OW  HW  HW  OW  HW  HW  OW  HW  HW  OW  HW  HW  OW  HW  HW  OW  HW  HW  OW  HW  
HW  OW  HW  HW  OW  HW  HW  OW  HW  HW  OW  HW  HW  OW  HW  HW  OW  HW  HW  OW  
HW  HW  OW  HW  HW  OW  HW  HW  OW  HW  HW  OW  HW  HW  OW  HW  HW  OW  HW  HW  
OW  HW  HW  OW  HW  HW  OW  HW  HW  OW  HW  HW  OW  HW  HW  OW  HW  HW  OW  HW  
HW  OW  HW  HW  OW  HW  HW  OW  HW  HW  OW  HW  HW  OW  HW  HW  OW  HW  HW  OW  
HW  HW  OW  HW  HW  OW  HW  HW  OW  HW  HW  OW  HW  HW  OW  HW  HW  OW  HW  HW  
OW  HW  HW  OW  HW  HW  OW  HW  HW  OW  HW  HW  OW  HW  HW  OW  HW  HW  OW  HW  
HW  OW  HW  HW  OW  HW  HW  OW  HW  HW  OW  HW  HW  OW  HW  HW  OW  HW  HW  OW  
HW  HW  OW  HW  HW  OW  HW  HW  OW  HW  HW  OW  HW  HW  OW  HW  HW  OW  HW  HW  
OW  HW  HW  OW  HW  HW  OW  HW  HW  OW  HW  HW  OW  HW  HW  OW  HW  HW  OW  HW  
HW  OW  HW  HW  OW  HW  HW  OW  HW  HW  OW  HW  HW  OW  HW  HW  OW  HW  HW  OW  
HW  HW  OW  HW  HW  OW  HW  HW  OW  HW  HW  OW  HW  HW  OW  HW  HW  OW  HW  HW  
OW  HW  HW  OW  HW  HW  OW  HW  HW  OW  HW  HW  OW  HW  HW  OW  HW  HW  OW  HW  
HW  OW  HW  HW  OW  HW  HW  OW  HW  HW  OW  HW  HW  OW  HW  HW  OW  HW  HW  OW  
HW  HW  OW  HW  HW  OW  HW  HW  OW  HW  HW  OW  HW  HW  OW  HW  HW  OW  HW  HW  
OW  HW  HW  OW  HW  HW  OW  HW  HW  OW  HW  HW  OW  HW  HW  OW  HW  HW  OW  HW  
HW  OW  HW  HW  OW  HW  HW  OW  HW  HW  OW  HW  HW  OW  HW  HW  OW  HW  HW  OW  
HW  HW  OW  HW  HW  OW  HW  HW  OW  HW  HW  OW  HW  HW  OW  HW  HW  OW  HW  HW  
OW  HW  HW  OW  HW  HW  OW  HW  HW  OW  HW  HW  OW  HW  HW  OW  HW  HW  OW  HW  
HW  OW  HW  HW  OW  HW  HW  OW  HW  HW  OW  HW  HW  OW  HW  HW  OW  HW  HW  OW  
HW  HW  OW  HW  HW  OW  HW  HW  OW  HW  HW  OW  HW  HW  OW  HW  HW  OW  HW  HW  
OW  HW  HW  OW  HW  HW  OW  HW  HW  OW  HW  HW  OW  HW  HW  OW  HW  HW  OW  HW  
HW  OW  HW  HW  OW  HW  HW  OW  HW  HW  OW  HW  HW  OW  HW  HW  OW  HW  HW  OW  
HW  HW  OW  HW  HW  OW  HW  HW  OW  HW  HW  OW  HW  HW  OW  HW  HW  OW  HW  HW  
OW  HW  HW  OW  HW  HW  OW  HW  HW  OW  HW  HW  OW  HW  HW  OW  HW  HW  OW  HW  
HW  OW  HW  HW  OW  HW  HW  OW  HW  HW  OW  HW  HW  OW  HW  HW  OW  HW  HW  OW  
HW  HW  OW  HW  HW  OW  HW  HW  OW  HW  HW  OW  HW  HW  OW  HW  HW  OW  HW  HW  
OW  HW  HW  OW  HW  HW  OW  HW  HW  OW  HW  HW  OW  HW  HW  OW  HW  HW  OW  HW  
HW  OW  HW  HW  OW  HW  HW  OW  HW  HW  OW  HW  HW  OW  HW  HW  OW  HW  HW  OW  
HW  HW  OW  HW  HW  OW  HW  HW  OW  HW  HW  OW  HW  HW  OW  HW  HW  OW  HW  HW  
OW  HW  HW  OW  HW  HW  OW  HW  HW  OW  HW  HW  OW  HW  HW  OW  HW  HW  OW  HW  
HW  OW  HW  HW  OW  HW  HW  OW  HW  HW  OW  HW  HW  OW  HW  HW  OW  HW  HW  OW  
HW  HW  OW  HW  HW  OW  HW  HW  OW  HW  HW  OW  HW  HW  OW  HW  HW  OW  HW  HW  
OW  HW  HW  OW  HW  HW  OW  HW  HW  OW  HW  HW  OW  HW  HW  OW  HW  HW  OW  HW  
HW  OW  HW  HW  OW  HW  HW  OW  HW  HW  OW  HW  HW  OW  HW  HW  OW  HW  HW  OW  
HW  HW  OW  HW  HW  OW  HW  HW  OW  HW  HW  OW  HW  HW  OW  HW  HW  OW  HW  HW  
OW  HW  HW  OW  HW  HW  OW  HW  HW  OW  HW  HW  OW  HW  HW  OW  HW  HW  OW  HW  
HW  OW  HW  HW  OW  HW  HW  OW  HW  HW  OW  HW  HW  OW  HW  HW  OW  HW  HW  OW  
HW  HW  OW  HW  HW  OW  HW  HW  OW  HW  HW  OW  HW  HW  OW  HW  HW  OW  HW  HW  
OW  HW  HW  OW  HW  HW  OW  HW  HW  OW  HW  HW  OW  HW  HW  OW  HW  HW  OW  HW  
HW  OW  HW  HW  OW  HW  HW  OW  HW  HW  OW  HW  HW  OW  HW  HW  OW  HW  HW  OW  
HW  HW  OW  HW  HW  OW  HW  HW  OW  HW  HW  OW  HW  HW  OW  HW  HW  OW  HW  HW  
OW  HW  HW  OW  HW  HW  OW  HW  HW  OW  HW  HW  OW  HW  HW  OW  HW  HW  OW  HW  
HW  OW  HW  HW  OW  HW  HW  OW  HW  HW  OW  HW  HW  OW  HW  HW  OW  HW  HW  OW  
HW  HW  OW  HW  HW  OW  HW  HW  OW  HW  HW  OW  HW  HW  OW  HW  HW  OW  HW  HW  
OW  HW  HW  OW  HW  HW  OW  HW  HW  OW  HW  HW  OW  HW  HW  OW  HW  HW  OW  HW  
HW  OW  HW  HW  OW  HW  HW  OW  HW  HW  OW  HW  HW  OW  HW  HW  OW  HW  HW  OW  
HW  HW  OW  HW  HW  OW  HW  HW  OW  HW  HW  OW  HW  HW  OW  HW  HW  OW  HW  HW  
OW  HW  HW  OW  HW  HW  OW  HW  HW  OW  HW  HW  OW  HW  HW  OW  HW  HW  OW  HW  
HW  OW  HW  HW  OW  HW  HW  OW  HW  HW  OW  HW  HW  OW  HW  HW  OW  HW  HW  OW  
HW  HW  OW  HW  HW  OW  HW  HW  OW  HW  HW  OW  HW  HW  OW  HW  HW  OW  HW  HW  
OW  HW  HW  OW  HW  HW  OW  HW  HW  OW  HW  HW  OW  HW  HW  OW  HW  HW  OW  HW  
HW  OW  HW  HW  OW  HW  HW  OW  HW  HW  OW  HW  HW  OW  HW  HW  OW  HW  HW  OW  
HW  HW  OW  HW  HW  OW  HW  HW  OW  HW  HW  OW  HW  HW  OW  HW  HW  OW  HW  HW  
OW  HW  HW  OW  HW  HW  OW  HW  HW  OW  HW  HW  OW  HW  HW  OW  HW  HW  OW  HW  
HW  OW  HW  HW  OW  HW  HW  OW  HW  HW  OW  HW  HW  OW  HW  HW  OW  HW  HW  OW  
HW  HW  OW  HW  HW  OW  HW  HW  OW  HW  HW  OW  HW  HW  OW  HW  HW  OW  HW  HW  
OW  HW  HW  OW  HW  HW  OW  HW  HW  OW  HW  HW  OW  HW  HW  OW  HW  HW  OW  HW  
HW  OW  HW  HW  OW  HW  HW  OW  HW  HW  OW  HW  HW  OW  HW  HW  OW  HW  HW  OW  
HW  HW  OW  HW  HW  OW  HW  HW  OW  HW  HW  OW  HW  HW  OW  HW  HW  OW  HW  HW  
OW  HW  HW  OW  HW  HW  OW  HW  HW  OW  HW  HW  OW  HW  HW  OW  HW  HW  OW  HW  
HW  OW  HW  HW  OW  HW  HW  OW  HW  HW  OW  HW  HW  OW  HW  HW  OW  HW  HW  OW  
HW  HW  OW  HW  HW  OW  HW  HW  OW  HW  HW  OW  HW  HW  OW  HW  HW  OW  HW  HW  
OW  HW  HW  OW  HW  HW  OW  HW  HW  OW  HW  HW  OW  HW  HW  OW  HW  HW  OW  HW  
HW  OW  HW  HW  OW  HW  HW  OW  HW  HW  OW  HW  HW  OW  HW  HW  OW  HW  HW  OW  
HW  HW  OW  HW  HW  OW  HW  HW  OW  HW  HW  OW  HW  HW  OW  HW  HW  OW  HW  HW  
OW  HW  HW  OW  HW  HW  OW  HW  HW  OW  HW  HW  OW  HW  HW  OW  HW  HW  OW  HW  
HW  OW  HW  HW  OW  HW  HW  OW  HW  HW  OW  HW  HW  OW  HW  HW  OW  HW  HW  OW  
HW  HW  OW  HW  HW  OW  HW  HW  OW  HW  HW  OW  HW  HW  OW  HW  HW  OW  HW  HW  
OW  HW  HW  OW  HW  HW  OW  HW  HW  OW  HW  HW  OW  HW  HW  OW  HW  HW  OW  HW  
HW  OW  HW  HW  OW  HW  HW  OW  HW  HW  OW  HW  HW  OW  HW  HW  OW  HW  HW  OW  
HW  HW  OW  HW  HW  OW  HW  HW  OW  HW  HW  OW  HW  HW  OW  HW  HW  OW  HW  HW  
OW  HW  HW  OW  HW  HW  OW  HW  HW  OW  HW  HW  OW  HW  HW  OW  HW  HW  OW  HW  
HW  OW  HW  HW  OW  HW  HW  OW  HW  HW  OW  HW  HW  OW  HW  HW  OW  HW  HW  OW  
HW  HW  OW  HW  HW  OW  HW  HW  OW  HW  HW  OW  HW  HW  OW  HW  HW  OW  HW  HW  
OW  HW  HW  OW  HW  HW  OW  HW  HW  OW  HW  HW  OW  HW  HW  OW  HW  HW  OW  HW  
HW  OW  HW  HW  OW  HW  HW  OW  HW  HW  OW  HW  HW  OW  HW  HW  OW  HW  HW  OW  
HW  HW  OW  HW  HW  OW  HW  HW  OW  HW  HW  OW  HW  HW  OW  HW  HW  OW  HW  HW  
OW  HW  HW  OW  HW  HW  OW  HW  HW  OW  HW  HW  OW  HW  HW  OW  HW  HW  OW  HW  
HW  OW  HW  HW  OW  HW  HW  OW  HW  HW  OW  HW  HW  OW  HW  HW  OW  HW  HW  OW  
HW  HW  OW  HW  HW  OW  HW  HW  OW  HW  HW  OW  HW  HW  OW  HW  HW  OW  HW  HW  
OW  HW  HW  OW  HW  HW  OW  HW  HW  OW  HW  HW  OW  HW  HW  OW  HW  HW  OW  HW  
HW  OW  HW  HW  OW  HW  HW  OW  HW  HW  OW  HW  HW  OW  HW  HW  OW  HW  HW  OW  
HW  HW  OW  HW  HW  OW  HW  HW  OW  HW  HW  OW  HW  HW  OW  HW  HW  OW  HW  HW  
OW  HW  HW  OW  HW  HW  OW  HW  HW  OW  HW  HW  OW  HW  HW  OW  HW  HW  OW  HW  
HW  OW  HW  HW  OW  HW  HW  OW  HW  HW  OW  HW  HW  OW  HW  HW  OW  HW  HW  OW  
HW  HW  OW  HW  HW  OW  HW  HW  OW  HW  HW  OW  HW  HW  OW  HW  HW  OW  HW  HW  
OW  HW  HW  OW  HW  HW  OW  HW  HW  OW  HW  HW  OW  HW  HW  OW  HW  HW  OW  HW  
HW  OW  HW  HW  OW  HW  HW  OW  HW  HW  OW  HW  HW  OW  HW  HW  OW  HW  HW  OW  
HW  HW  OW  HW  HW  OW  HW  HW  OW  HW  HW  OW  HW  HW  OW  HW  HW  OW  HW  HW  
OW  HW  HW  OW  HW  HW  OW  HW  HW  OW  HW  HW  OW  HW  HW  OW  HW  HW  OW  HW  
HW  OW  HW  HW  OW  HW  HW  OW  HW  HW  OW  HW  HW  OW  HW  HW  OW  HW  HW  OW  
HW  HW  OW  HW  HW  OW  HW  HW  OW  HW  HW  OW  HW  HW  OW  HW  HW  OW  HW  HW  
OW  HW  HW  OW  HW  HW  OW  HW  HW  OW  HW  HW  OW  HW  HW  OW  HW  HW  OW  HW  
HW  OW  HW  HW  OW  HW  HW  OW  HW  HW  OW  HW  HW  OW  HW  HW  OW  HW  HW  OW  
HW  HW  OW  HW  HW  OW  HW  HW  OW  HW  HW  OW  HW  HW  OW  HW  HW  OW  HW  HW  
OW  HW  HW  OW  HW  HW  OW  HW  HW  OW  HW  HW  OW  HW  HW  OW  HW  HW  OW  HW  
HW  OW  HW  HW  OW  HW  HW  OW  HW  HW  OW  HW  HW  OW  HW  HW  OW  HW  HW  OW  
HW  HW  OW  HW  HW  OW  HW  HW  OW  HW  HW  OW  HW  HW  OW  HW  HW  OW  HW  HW  
OW  HW  HW  OW  HW  HW  OW  HW  HW  OW  HW  HW  OW  HW  HW  OW  HW  HW  OW  HW  
HW  OW  HW  HW  OW  HW  HW  OW  HW  HW  OW  HW  HW  OW  HW  HW  OW  HW  HW  OW  
HW  HW  OW  HW  HW  OW  HW  HW  OW  HW  HW  OW  HW  HW  OW  HW  HW  OW  HW  HW  
OW  HW  HW  OW  HW  HW  OW  HW  HW  OW  HW  HW  OW  HW  HW  OW  HW  HW  OW  HW  
HW  OW  HW  HW  OW  HW  HW  OW  HW  HW  OW  HW  HW  OW  HW  HW  OW  HW  HW  OW  
HW  HW  OW  HW  HW  OW  HW  HW  OW  HW  HW  OW  HW  HW  OW  HW  HW  OW  HW  HW  
OW  HW  HW  OW  HW  HW  OW  HW  HW  OW  HW  HW  OW  HW  HW  OW  HW  HW  OW  HW  
HW  OW  HW  HW  OW  HW  HW  OW  HW  HW  OW  HW  HW  OW  HW  HW  OW  HW  HW  OW  
HW  HW  OW  HW  HW  OW  HW  HW  OW  HW  HW  OW  HW  HW  OW  HW  HW  OW  HW  HW  
OW  HW  HW  OW  HW  HW  OW  HW  HW  OW  HW  HW  OW  HW  HW  OW  HW  HW  OW  HW  
HW  OW  HW  HW  OW  HW  HW  OW  HW  HW  OW  HW  HW  OW  HW  HW  OW  HW  HW  OW  
HW  HW  OW  HW  HW  OW  HW  HW  OW  HW  HW  OW  HW  HW  OW  HW  HW  OW  HW  HW  
OW  HW  HW  OW  HW  HW  OW  HW  HW  OW  HW  HW  OW  HW  HW  OW  HW  HW  OW  HW  
HW  OW  HW  HW  OW  HW  HW  OW  HW  HW  OW  HW  HW  OW  HW  HW  OW  HW  HW  OW  
HW  HW  OW  HW  HW  OW  HW  HW  OW  HW  HW  OW  HW  HW  OW  HW  HW  OW  HW  HW  
OW  HW  HW  OW  HW  HW  OW  HW  HW  OW  HW  HW  OW  HW  HW  OW  HW  HW  OW  HW  
HW  OW  HW  HW  OW  HW  HW  OW  HW  HW  OW  HW  HW  OW  HW  HW  OW  HW  HW  OW  
HW  HW  OW  HW  HW  OW  HW  HW  OW  HW  HW  OW  HW  HW  OW  HW  HW  OW  HW  HW  
OW  HW  HW  OW  HW  HW  OW  HW  HW  OW  HW  HW  OW  HW  HW  OW  HW  HW  OW  HW  
HW  OW  HW  HW  OW  HW  HW  OW  HW  HW  OW  HW  HW  OW  HW  HW  OW  HW  HW  OW  
HW  HW  OW  HW  HW  OW  HW  HW  OW  HW  HW  OW  HW  HW  OW  HW  HW  OW  HW  HW  
OW  HW  HW  OW  HW  HW  OW  HW  HW  OW  HW  HW  OW  HW  HW  OW  HW  HW  OW  HW  
HW  OW  HW  HW  OW  HW  HW  OW  HW  HW  OW  HW  HW  OW  HW  HW  OW  HW  HW  OW  
HW  HW  OW  HW  HW  OW  HW  HW  OW  HW  HW  OW  HW  HW  OW  HW  HW  OW  HW  HW  
OW  HW  HW  OW  HW  HW  OW  HW  HW  OW  HW  HW  OW  HW  HW  OW  HW  HW  OW  HW  
HW  OW  HW  HW  OW  HW  HW  OW  HW  HW  OW  HW  HW  OW  HW  HW  OW  HW  HW  OW  
HW  HW  OW  HW  HW  OW  HW  HW  OW  HW  HW  OW  HW  HW  OW  HW  HW  OW  HW  HW  
OW  HW  HW  OW  HW  HW  OW  HW  HW  OW  HW  HW  OW  HW  HW  OW  HW  HW  OW  HW  
HW  OW  HW  HW  OW  HW  HW  OW  HW  HW  OW  HW  HW  OW  HW  HW  OW  HW  HW  OW  
HW  HW  OW  HW  HW  OW  HW  HW  OW  HW  HW  OW  HW  HW  OW  HW  HW  OW  HW  HW  
OW  HW  HW  OW  HW  HW  OW  HW  HW  OW  HW  HW  OW  HW  HW  OW  HW  HW  OW  HW  
HW  OW  HW  HW  OW  HW  HW  OW  HW  HW  OW  HW  HW  OW  HW  HW  OW  HW  HW  OW  
HW  HW  OW  HW  HW  OW  HW  HW  OW  HW  HW  OW  HW  HW  OW  HW  HW  OW  HW  HW  
OW  HW  HW  OW  HW  HW  OW  HW  HW  OW  HW  HW  OW  HW  HW  OW  HW  HW  OW  HW  
HW  OW  HW  HW  OW  HW  HW  OW  HW  HW  OW  HW  HW  OW  HW  HW  OW  HW  HW  OW  
HW  HW  OW  HW  HW  OW  HW  HW  OW  HW  HW  OW  HW  HW  OW  HW  HW  OW  HW  HW  
OW  HW  HW  OW  HW  HW  OW  HW  HW  OW  HW  HW  OW  HW  HW  OW  HW  HW  OW  HW  
HW  OW  HW  HW  OW  HW  HW  OW  HW  HW  OW  HW  HW  OW  HW  HW  OW  HW  HW  OW  
HW  HW  OW  HW  HW  OW  HW  HW  OW  HW  HW  OW  HW  HW  OW  HW  HW  OW  HW  HW  
OW  HW  HW  OW  HW  HW  OW  HW  HW  OW  HW  HW  OW  HW  HW  OW  HW  HW  OW  HW  
HW  OW  HW  HW  OW  HW  HW  OW  HW  HW  OW  HW  HW  OW  HW  HW  OW  HW  HW  OW  
HW  HW  OW  HW  HW  OW  HW  HW  OW  HW  HW  OW  HW  HW  OW  HW  HW  OW  HW  HW  
OW  HW  HW  OW  HW  HW  OW  HW  HW  OW  HW  HW  OW  HW  HW  OW  HW  HW  OW  HW  
HW  OW  HW  HW  OW  HW  HW  OW  HW  HW  OW  HW  HW  OW  HW  HW  OW  HW  HW  OW  
HW  HW  OW  HW  HW  OW  HW  HW  OW  HW  HW  OW  HW  HW  OW  HW  HW  OW  HW  HW  
OW  HW  HW  OW  HW  HW  OW  HW  HW  OW  HW  HW  OW  HW  HW  OW  HW  HW  OW  HW  
HW  OW  HW  HW  OW  HW  HW  OW  HW  HW  OW  HW  HW  OW  HW  HW  OW  HW  HW  OW  
HW  HW  OW  HW  HW  OW  HW  HW  OW  HW  HW  OW  HW  HW  OW  HW  HW  OW  HW  HW  
OW  HW  HW  OW  HW  HW  OW  HW  HW  OW  HW  HW  OW  HW  HW  OW  HW  HW  OW  HW  
HW  OW  HW  HW  OW  HW  HW  OW  HW  HW  OW  HW  HW  OW  HW  HW  OW  HW  HW  OW  
HW  HW  OW  HW  HW  OW  HW  HW  OW  HW  HW  OW  HW  HW  OW  HW  HW  OW  HW  HW  
OW  HW  HW  OW  HW  HW  OW  HW  HW  OW  HW  HW  OW  HW  HW  OW  HW  HW  OW  HW  
HW  OW  HW  HW  OW  HW  HW  OW  HW  HW  OW  HW  HW  OW  HW  HW  OW  HW  HW  OW  
HW  HW  OW  HW  HW  OW  HW  HW  OW  HW  HW  OW  HW  HW  OW  HW  HW  OW  HW  HW  
OW  HW  HW  OW  HW  HW  OW  HW  HW  OW  HW  HW  OW  HW  HW  OW  HW  HW  OW  HW  
HW  OW  HW  HW  OW  HW  HW  OW  HW  HW  OW  HW  HW  OW  HW  HW  OW  HW  HW  OW  
HW  HW  OW  HW  HW  OW  HW  HW  OW  HW  HW  OW  HW  HW  OW  HW  HW  OW  HW  HW  
OW  HW  HW  OW  HW  HW  OW  HW  HW  OW  HW  HW  OW  HW  HW  OW  HW  HW  OW  HW  
HW  OW  HW  HW  OW  HW  HW  OW  HW  HW  OW  HW  HW  OW  HW  HW  OW  HW  HW  OW  
HW  HW  OW  HW  HW  OW  HW  HW  OW  HW  HW  OW  HW  HW  OW  HW  HW  OW  HW  HW  
OW  HW  HW  OW  HW  HW  OW  HW  HW  OW  HW  HW  OW  HW  HW  OW  HW  HW  OW  HW  
HW  OW  HW  HW  OW  HW  HW  OW  HW  HW  OW  HW  HW  OW  HW  HW  OW  HW  HW  OW  
HW  HW  OW  HW  HW  OW  HW  HW  OW  HW  HW  OW  HW  HW  OW  HW  HW  OW  HW  HW  
OW  HW  HW  OW  HW  HW  OW  HW  HW  OW  HW  HW  OW  HW  HW  OW  HW  HW  OW  HW  
HW  OW  HW  HW  OW  HW  HW  OW  HW  HW  OW  HW  HW  OW  HW  HW  OW  HW  HW  OW  
HW  HW  OW  HW  HW  OW  HW  HW  OW  HW  HW  OW  HW  HW  OW  HW  HW  OW  HW  HW  
OW  HW  HW  OW  HW  HW  OW  HW  HW  OW  HW  HW  OW  HW  HW  OW  HW  HW  OW  HW  
HW  OW  HW  HW  OW  HW  HW  OW  HW  HW  OW  HW  HW  OW  HW  HW  OW  HW  HW  OW  
HW  HW  OW  HW  HW  OW  HW  HW  OW  HW  HW  OW  HW  HW  OW  HW  HW  OW  HW  HW  
OW  HW  HW  OW  HW  HW  OW  HW  HW  OW  HW  HW  OW  HW  HW  OW  HW  HW  OW  HW  
HW  OW  HW  HW  OW  HW  HW  OW  HW  HW  OW  HW  HW  OW  HW  HW  OW  HW  HW  OW  
HW  HW  OW  HW  HW  OW  HW  HW  OW  HW  HW  OW  HW  HW  OW  HW  HW  OW  HW  HW  
OW  HW  HW  OW  HW  HW  OW  HW  HW  OW  HW  HW  OW  HW  HW  OW  HW  HW  OW  HW  
HW  OW  HW  HW  OW  HW  HW  OW  HW  HW  OW  HW  HW  OW  HW  HW  OW  HW  HW  OW  
HW  HW  OW  HW  HW  OW  HW  HW  OW  HW  HW  OW  HW  HW  OW  HW  HW  OW  HW  HW  
OW  HW  HW  OW  HW  HW  OW  HW  HW  OW  HW  HW  OW  HW  HW  OW  HW  HW  OW  HW  
HW  OW  HW  HW  OW  HW  HW  OW  HW  HW  OW  HW  HW  OW  HW  HW  OW  HW  HW  OW  
HW  HW  OW  HW  HW  OW  HW  HW  OW  HW  HW  OW  HW  HW  OW  HW  HW  OW  HW  HW  
OW  HW  HW  OW  HW  HW  OW  HW  HW  OW  HW  HW  OW  HW  HW  OW  HW  HW  OW  HW  
HW  OW  HW  HW  OW  HW  HW  OW  HW  HW  OW  HW  HW  OW  HW  HW  OW  HW  HW  OW  
HW  HW  OW  HW  HW  OW  HW  HW  OW  HW  HW  OW  HW  HW  OW  HW  HW  OW  HW  HW  
OW  HW  HW  OW  HW  HW  OW  HW  HW  OW  HW  HW  OW  HW  HW  OW  HW  HW  OW  HW  
HW  OW  HW  HW  OW  HW  HW  OW  HW  HW  OW  HW  HW  OW  HW  HW  OW  HW  HW  OW  
HW  HW  OW  HW  HW  OW  HW  HW  OW  HW  HW  OW  HW  HW  OW  HW  HW  OW  HW  HW  
OW  HW  HW  OW  HW  HW  OW  HW  HW  OW  HW  HW  OW  HW  HW  OW  HW  HW  OW  HW  
HW  OW  HW  HW  OW  HW  HW  OW  HW  HW  OW  HW  HW  OW  HW  HW  OW  HW  HW  OW  
HW  HW  OW  HW  HW  OW  HW  HW  OW  HW  HW  OW  HW  HW  OW  HW  HW  OW  HW  HW  
OW  HW  HW  OW  HW  HW  OW  HW  HW  OW  HW  HW  OW  HW  HW  OW  HW  HW  OW  HW  
HW  OW  HW  HW  OW  HW  HW  OW  HW  HW  OW  HW  HW  OW  HW  HW  OW  HW  HW  OW  
HW  HW  OW  HW  HW  OW  HW  HW  OW  HW  HW  OW  HW  HW  OW  HW  HW  OW  HW  HW  
OW  HW  HW  OW  HW  HW  OW  HW  HW  OW  HW  HW  OW  HW  HW  OW  HW  HW  OW  HW  
HW  OW  HW  HW  OW  HW  HW  OW  HW  HW  OW  HW  HW  OW  HW  HW  OW  HW  HW  OW  
HW  HW  OW  HW  HW  OW  HW  HW  OW  HW  HW  OW  HW  HW  OW  HW  HW  OW  HW  HW  
OW  HW  HW  OW  HW  HW  OW  HW  HW  OW  HW  HW  OW  HW  HW  OW  HW  HW  OW  HW  
HW  OW  HW  HW  OW  HW  HW  OW  HW  HW  OW  HW  HW  OW  HW  HW  OW  HW  HW  OW  
HW  HW  OW  HW  HW  OW  HW  HW  OW  HW  HW  OW  HW  HW  OW  HW  HW  OW  HW  HW  
OW  HW  HW  OW  HW  HW  OW  HW  HW  OW  HW  HW  OW  HW  HW  OW  HW  HW  OW  HW  
HW  OW  HW  HW  OW  HW  HW  OW  HW  HW  OW  HW  HW  OW  HW  HW  OW  HW  HW  OW  
HW  HW  OW  HW  HW  OW  HW  HW  OW  HW  HW  OW  HW  HW  OW  HW  HW  OW  HW  HW  
OW  HW  HW  OW  HW  HW  OW  HW  HW  OW  HW  HW  OW  HW  HW  OW  HW  HW  OW  HW  
HW  OW  HW  HW  OW  HW  HW  OW  HW  HW  OW  HW  HW  OW  HW  HW  OW  HW  HW  OW  
HW  HW  OW  HW  HW  OW  HW  HW  OW  HW  HW  OW  HW  HW  OW  HW  HW  OW  HW  HW  
OW  HW  HW  OW  HW  HW  OW  HW  HW  OW  HW  HW  OW  HW  HW  OW  HW  HW  OW  HW  
HW  OW  HW  HW  OW  HW  HW  OW  HW  HW  OW  HW  HW  OW  HW  HW  OW  HW  HW  OW  
HW  HW  OW  HW  HW  OW  HW  HW  OW  HW  HW  OW  HW  HW  OW  HW  HW  OW  HW  HW  
OW  HW  HW  OW  HW  HW  OW  HW  HW  OW  HW  HW  OW  HW  HW  OW  HW  HW  OW  HW  
HW  OW  HW  HW  OW  HW  HW  OW  HW  HW  OW  HW  HW  OW  HW  HW  OW  HW  HW  OW  
HW  HW  OW  HW  HW  OW  HW  HW  OW  HW  HW  OW  HW  HW  OW  HW  HW  OW  HW  HW  
OW  HW  HW  OW  HW  HW  OW  HW  HW  OW  HW  HW  OW  HW  HW  OW  HW  HW  OW  HW  
HW  OW  HW  HW  OW  HW  HW  OW  HW  HW  OW  HW  HW  OW  HW  HW  OW  HW  HW  OW  
HW  HW  OW  HW  HW  OW  HW  HW  OW  HW  HW  OW  HW  HW  OW  HW  HW  OW  HW  HW  
OW  HW  HW  OW  HW  HW  OW  HW  HW  OW  HW  HW  OW  HW  HW  OW  HW  HW  OW  HW  
HW  OW  HW  HW  OW  HW  HW  OW  HW  HW  OW  HW  HW  OW  HW  HW  OW  HW  HW  OW  
HW  HW  OW  HW  HW  OW  HW  HW  OW  HW  HW  OW  HW  HW  OW  HW  HW  OW  HW  HW  
OW  HW  HW  OW  HW  HW  OW  HW  HW  OW  HW  HW  OW  HW  HW  OW  HW  HW  OW  HW  
HW  OW  HW  HW  OW  HW  HW  OW  HW  HW  OW  HW  HW  OW  HW  HW  OW  HW  HW  OW  
HW  HW  OW  HW  HW  OW  HW  HW  OW  HW  HW  OW  HW  HW  OW  HW  HW  OW  HW  HW  
OW  HW  HW  OW  HW  HW  OW  HW  HW  OW  HW  HW  OW  HW  HW  OW  HW  HW  OW  HW  
HW  OW  HW  HW  OW  HW  HW  OW  HW  HW  OW  HW  HW  OW  HW  HW  OW  HW  HW  OW  
HW  HW  OW  HW  HW  OW  HW  HW  OW  HW  HW  OW  HW  HW  OW  HW  HW  OW  HW  HW  
OW  HW  HW  OW  HW  HW  OW  HW  HW  OW  HW  HW  OW  HW  HW  OW  HW  HW  OW  HW  
HW  OW  HW  HW  OW  HW  HW  OW  HW  HW  OW  HW  HW  OW  HW  HW  OW  HW  HW  OW  
HW  HW  OW  HW  HW  OW  HW  HW  OW  HW  HW  OW  HW  HW  OW  HW  HW  OW  HW  HW  
OW  HW  HW  OW  HW  HW  OW  HW  HW  OW  HW  HW  OW  HW  HW  OW  HW  HW  OW  HW  
HW  OW  HW  HW  OW  HW  HW  OW  HW  HW  OW  HW  HW  OW  HW  HW  OW  HW  HW  OW  
HW  HW  OW  HW  HW  OW  HW  HW  OW  HW  HW  OW  HW  HW  OW  HW  HW  OW  HW  HW  
OW  HW  HW  OW  HW  HW  OW  HW  HW  OW  HW  HW  OW  HW  HW  OW  HW  HW  OW  HW  
HW  OW  HW  HW  OW  HW  HW  OW  HW  HW  OW  HW  HW  OW  HW  HW  OW  HW  HW  OW  
HW  HW  OW  HW  HW  OW  HW  HW  OW  HW  HW  OW  HW  HW  OW  HW  HW  OW  HW  HW  
OW  HW  HW  OW  HW  HW  OW  HW  HW  OW  HW  HW  OW  HW  HW  OW  HW  HW  OW  HW  
HW  OW  HW  HW  OW  HW  HW  OW  HW  HW  OW  HW  HW  OW  HW  HW  OW  HW  HW  OW  
HW  HW  OW  HW  HW  OW  HW  HW  OW  HW  HW  OW  HW  HW  OW  HW  HW  OW  HW  HW  
OW  HW  HW  OW  HW  HW  OW  HW  HW  OW  HW  HW  OW  HW  HW  OW  HW  HW  OW  HW  
HW  OW  HW  HW  OW  HW  HW  OW  HW  HW  OW  HW  HW  OW  HW  HW  OW  HW  HW  OW  
HW  HW  OW  HW  HW  OW  HW  HW  OW  HW  HW  OW  HW  HW  OW  HW  HW  OW  HW  HW  
OW  HW  HW  OW  HW  HW  OW  HW  HW  OW  HW  HW  OW  HW  HW  OW  HW  HW  OW  HW  
HW  OW  HW  HW  OW  HW  HW  OW  HW  HW  OW  HW  HW  OW  HW  HW  OW  HW  HW  OW  
HW  HW  OW  HW  HW  OW  HW  HW  OW  HW  HW  OW  HW  HW  OW  HW  HW  OW  HW  HW  
OW  HW  HW  OW  HW  HW  OW  HW  HW  OW  HW  HW  OW  HW  HW  OW  HW  HW  OW  HW  
HW  OW  HW  HW  OW  HW  HW  OW  HW  HW  OW  HW  HW  OW  HW  HW  OW  HW  HW  OW  
HW  HW  OW  HW  HW  OW  HW  HW  OW  HW  HW  OW  HW  HW  OW  HW  HW  OW  HW  HW  
OW  HW  HW  OW  HW  HW  OW  HW  HW  OW  HW  HW  OW  HW  HW  OW  HW  HW  OW  HW  
HW  OW  HW  HW  OW  HW  HW  OW  HW  HW  OW  HW  HW  OW  HW  HW  OW  HW  HW  OW  
HW  HW  OW  HW  HW  OW  HW  HW  OW  HW  HW  OW  HW  HW  OW  HW  HW  OW  HW  HW  
OW  HW  HW  OW  HW  HW  OW  HW  HW  OW  HW  HW  OW  HW  HW  OW  HW  HW  OW  HW  
HW  OW  HW  HW  OW  HW  HW  OW  HW  HW  OW  HW  HW  OW  HW  HW  OW  HW  HW  OW  
HW  HW  OW  HW  HW  OW  HW  HW  OW  HW  HW  OW  HW  HW  OW  HW  HW  OW  HW  HW  
OW  HW  HW  OW  HW  HW  OW  HW  HW  OW  HW  HW  OW  HW  HW  OW  HW  HW  OW  HW  
HW  OW  HW  HW  OW  HW  HW  OW  HW  HW  OW  HW  HW  OW  HW  HW  OW  HW  HW  OW  
HW  HW  OW  HW  HW  OW  HW  HW  OW  HW  HW  OW  HW  HW  OW  HW  HW  OW  HW  HW  
OW  HW  HW  OW  HW  HW  OW  HW  HW  OW  HW  HW  OW  HW  HW  OW  HW  HW  OW  HW  
HW  OW  HW  HW  OW  HW  HW  OW  HW  HW  OW  HW  HW  OW  HW  HW  OW  HW  HW  OW  
HW  HW  OW  HW  HW  OW  HW  HW  OW  HW  HW  OW  HW  HW  OW  HW  HW  OW  HW  HW  
OW  HW  HW  OW  HW  HW  OW  HW  HW  OW  HW  HW  OW  HW  HW  OW  HW  HW  OW  HW  
HW  OW  HW  HW  OW  HW  HW  OW  HW  HW  OW  HW  HW  OW  HW  HW  OW  HW  HW  OW  
HW  HW  OW  HW  HW  OW  HW  HW  OW  HW  HW  OW  HW  HW  OW  HW  HW  OW  HW  HW  
OW  HW  HW  OW  HW  HW  OW  HW  HW  OW  HW  HW  OW  HW  HW  OW  HW  HW  OW  HW  
HW  OW  HW  HW  OW  HW  HW  OW  HW  HW  OW  HW  HW  OW  HW  HW  OW  HW  HW  OW  
HW  HW  OW  HW  HW  OW  HW  HW  OW  HW  HW  OW  HW  HW  OW  HW  HW  OW  HW  HW  
OW  HW  HW  OW  HW  HW  OW  HW  HW  OW  HW  HW  OW  HW  HW  OW  HW  HW  OW  HW  
HW  OW  HW  HW  OW  HW  HW  OW  HW  HW  OW  HW  HW  OW  HW  HW  OW  HW  HW  OW  
HW  HW  OW  HW  HW  OW  HW  HW  OW  HW  HW  OW  HW  HW  OW  HW  HW  OW  HW  HW  
OW  HW  HW  OW  HW  HW  OW  HW  HW  OW  HW  HW  OW  HW  HW  OW  HW  HW  OW  HW  
HW  OW  HW  HW  OW  HW  HW  OW  HW  HW  OW  HW  HW  OW  HW  HW  OW  HW  HW  OW  
HW  HW  OW  HW  HW  OW  HW  HW  OW  HW  HW  OW  HW  HW  OW  HW  HW  OW  HW  HW  
OW  HW  HW  OW  HW  HW  OW  HW  HW  OW  HW  HW  OW  HW  HW  OW  HW  HW  OW  HW  
HW  OW  HW  HW  OW  HW  HW  OW  HW  HW  OW  HW  HW  OW  HW  HW  OW  HW  HW  OW  
HW  HW  OW  HW  HW  OW  HW  HW  OW  HW  HW  OW  HW  HW  OW  HW  HW  OW  HW  HW  
OW  HW  HW  OW  HW  HW  OW  HW  HW  OW  HW  HW  OW  HW  HW  OW  HW  HW  OW  HW  
HW  OW  HW  HW  OW  HW  HW  OW  HW  HW  OW  HW  HW  OW  HW  HW  OW  HW  HW  OW  
HW  HW  OW  HW  HW  OW  HW  HW  OW  HW  HW  OW  HW  HW  OW  HW  HW  OW  HW  HW  
OW  HW  HW  OW  HW  HW  OW  HW  HW  OW  HW  HW  OW  HW  HW  OW  HW  HW  OW  HW  
HW  OW  HW  HW  OW  HW  HW  OW  HW  HW  OW  HW  HW  OW  HW  HW  OW  HW  HW  OW  
HW  HW  OW  HW  HW  OW  HW  HW  OW  HW  HW  OW  HW  HW  OW  HW  HW  OW  HW  HW  
OW  HW  HW  OW  HW  HW  OW  HW  HW  OW  HW  HW  OW  HW  HW  OW  HW  HW  OW  HW  
HW  OW  HW  HW  OW  HW  HW  OW  HW  HW  OW  HW  HW  OW  HW  HW  OW  HW  HW  OW  
HW  HW  OW  HW  HW  OW  HW  HW  OW  HW  HW  OW  HW  HW  OW  HW  HW  OW  HW  HW  
OW  HW  HW  OW  HW  HW  OW  HW  HW  OW  HW  HW  OW  HW  HW  OW  HW  HW  OW  HW  
HW  OW  HW  HW  OW  HW  HW  OW  HW  HW  OW  HW  HW  OW  HW  HW  OW  HW  HW  OW  
HW  HW  OW  HW  HW  OW  HW  HW  OW  HW  HW  OW  HW  HW  OW  HW  HW  OW  HW  HW  
OW  HW  HW  OW  HW  HW  OW  HW  HW  OW  HW  HW  OW  HW  HW  OW  HW  HW  OW  HW  
HW  OW  HW  HW  OW  HW  HW  OW  HW  HW  OW  HW  HW  OW  HW  HW  OW  HW  HW  OW  
HW  HW  OW  HW  HW  OW  HW  HW  OW  HW  HW  OW  HW  HW  OW  HW  HW  OW  HW  HW  
OW  HW  HW  OW  HW  HW  OW  HW  HW  OW  HW  HW  OW  HW  HW  OW  HW  HW  OW  HW  
HW  OW  HW  HW  OW  HW  HW  OW  HW  HW  OW  HW  HW  OW  HW  HW  OW  HW  HW  OW  
HW  HW  OW  HW  HW  OW  HW  HW  OW  HW  HW  OW  HW  HW  OW  HW  HW  OW  HW  HW  
OW  HW  HW  OW  HW  HW  OW  HW  HW  OW  HW  HW  OW  HW  HW  OW  HW  HW  OW  HW  
HW  OW  HW  HW  OW  HW  HW  OW  HW  HW  OW  HW  HW  OW  HW  HW  OW  HW  HW  OW  
HW  HW  OW  HW  HW  OW  HW  HW  OW  HW  HW  OW  HW  HW  OW  HW  HW  OW  HW  HW  
OW  HW  HW  OW  HW  HW  OW  HW  HW  OW  HW  HW  OW  HW  HW  OW  HW  HW  OW  HW  
HW  OW  HW  HW  OW  HW  HW  OW  HW  HW  OW  HW  HW  OW  HW  HW  OW  HW  HW  OW  
HW  HW  OW  HW  HW  OW  HW  HW  OW  HW  HW  OW  HW  HW  OW  HW  HW  OW  HW  HW  
OW  HW  HW  OW  HW  HW  OW  HW  HW  OW  HW  HW  OW  HW  HW  OW  HW  HW  OW  HW  
HW  OW  HW  HW  OW  HW  HW  OW  HW  HW  OW  HW  HW  OW  HW  HW  OW  HW  HW  OW  
HW  HW  OW  HW  HW  OW  HW  HW  OW  HW  HW  OW  HW  HW  OW  HW  HW  OW  HW  HW  
OW  HW  HW  OW  HW  HW  OW  HW  HW  OW  HW  HW  OW  HW  HW  OW  HW  HW  OW  HW  
HW  OW  HW  HW  OW  HW  HW  OW  HW  HW  OW  HW  HW  OW  HW  HW  OW  HW  HW  OW  
HW  HW  OW  HW  HW  OW  HW  HW  OW  HW  HW  OW  HW  HW  OW  HW  HW  OW  HW  HW  
OW  HW  HW  OW  HW  HW  OW  HW  HW  OW  HW  HW  OW  HW  HW  OW  HW  HW  OW  HW  
HW  OW  HW  HW  OW  HW  HW  OW  HW  HW  OW  HW  HW  OW  HW  HW  OW  HW  HW  OW  
HW  HW  OW  HW  HW  OW  HW  HW  OW  HW  HW  OW  HW  HW  OW  HW  HW  OW  HW  HW  
OW  HW  HW  OW  HW  HW  OW  HW  HW  OW  HW  HW  OW  HW  HW  OW  HW  HW  OW  HW  
HW  OW  HW  HW  OW  HW  HW  OW  HW  HW  OW  HW  HW  OW  HW  HW  OW  HW  HW  OW  
HW  HW  OW  HW  HW  OW  HW  HW  OW  HW  HW  OW  HW  HW  OW  HW  HW  OW  HW  HW  
OW  HW  HW  OW  HW  HW  OW  HW  HW  OW  HW  HW  OW  HW  HW  OW  HW  HW  OW  HW  
HW  OW  HW  HW  OW  HW  HW  OW  HW  HW  OW  HW  HW  OW  HW  HW  OW  HW  HW  OW  
HW  HW  OW  HW  HW  OW  HW  HW  OW  HW  HW  OW  HW  HW  OW  HW  HW  OW  HW  HW  
OW  HW  HW  OW  HW  HW  OW  HW  HW  OW  HW  HW  OW  HW  HW  OW  HW  HW  OW  HW  
HW  OW  HW  HW  OW  HW  HW  OW  HW  HW  OW  HW  HW  OW  HW  HW  OW  HW  HW  OW  
HW  HW  OW  HW  HW  OW  HW  HW  OW  HW  HW  OW  HW  HW  OW  HW  HW  OW  HW  HW  
OW  HW  HW  OW  HW  HW  OW  HW  HW  OW  HW  HW  OW  HW  HW  OW  HW  HW  OW  HW  
HW  OW  HW  HW  OW  HW  HW  OW  HW  HW  OW  HW  HW  OW  HW  HW  OW  HW  HW  OW  
HW  HW  OW  HW  HW  OW  HW  HW  OW  HW  HW  OW  HW  HW  OW  HW  HW  OW  HW  HW  
OW  HW  HW  OW  HW  HW  OW  HW  HW  OW  HW  HW  OW  HW  HW  OW  HW  HW  OW  HW  
HW  OW  HW  HW  OW  HW  HW  OW  HW  HW  OW  HW  HW  OW  HW  HW  OW  HW  HW  OW  
HW  HW  OW  HW  HW  OW  HW  HW  OW  HW  HW  OW  HW  HW  OW  HW  HW  OW  HW  HW  
OW  HW  HW  OW  HW  HW  OW  HW  HW  OW  HW  HW  OW  HW  HW  OW  HW  HW  OW  HW  
HW  OW  HW  HW  OW  HW  HW  OW  HW  HW  OW  HW  HW  OW  HW  HW  OW  HW  HW  OW  
HW  HW  OW  HW  HW  OW  HW  HW  OW  HW  HW  OW  HW  HW  OW  HW  HW  OW  HW  HW  
OW  HW  HW  OW  HW  HW  OW  HW  HW  OW  HW  HW  OW  HW  HW  OW  HW  HW  OW  HW  
HW  OW  HW  HW  OW  HW  HW  OW  HW  HW  OW  HW  HW  OW  HW  HW  OW  HW  HW  OW  
HW  HW  OW  HW  HW  OW  HW  HW  OW  HW  HW  OW  HW  HW  OW  HW  HW  OW  HW  HW  
OW  HW  HW  OW  HW  HW  OW  HW  HW  OW  HW  HW  OW  HW  HW  OW  HW  HW  OW  HW  
HW  OW  HW  HW  OW  HW  HW  OW  HW  HW  OW  HW  HW  OW  HW  HW  OW  HW  HW  OW  
HW  HW  OW  HW  HW  OW  HW  HW  OW  HW  HW  OW  HW  HW  OW  HW  HW  OW  HW  HW  
OW  HW  HW  OW  HW  HW  OW  HW  HW  OW  HW  HW  OW  HW  HW  OW  HW  HW  OW  HW  
HW  OW  HW  HW  OW  HW  HW  OW  HW  HW  OW  HW  HW  OW  HW  HW  OW  HW  HW  OW  
HW  HW  OW  HW  HW  OW  HW  HW  OW  HW  HW  OW  HW  HW  OW  HW  HW  OW  HW  HW  
OW  HW  HW  OW  HW  HW  OW  HW  HW  OW  HW  HW  OW  HW  HW  OW  HW  HW  OW  HW  
HW  OW  HW  HW  OW  HW  HW  OW  HW  HW  OW  HW  HW  OW  HW  HW  OW  HW  HW  OW  
HW  HW  OW  HW  HW  OW  HW  HW  OW  HW  HW  OW  HW  HW  OW  HW  HW  OW  HW  HW  
OW  HW  HW  OW  HW  HW  OW  HW  HW  OW  HW  HW  OW  HW  HW  OW  HW  HW  OW  HW  
HW  OW  HW  HW  OW  HW  HW  OW  HW  HW  OW  HW  HW  OW  HW  HW  OW  HW  HW  OW  
HW  HW  OW  HW  HW  OW  HW  HW  OW  HW  HW  OW  HW  HW  OW  HW  HW  OW  HW  HW  
OW  HW  HW  OW  HW  HW  OW  HW  HW  OW  HW  HW  OW  HW  HW  OW  HW  HW  OW  HW  
HW  OW  HW  HW  OW  HW  HW  OW  HW  HW  OW  HW  HW  OW  HW  HW  OW  HW  HW  OW  
HW  HW  OW  HW  HW  OW  HW  HW  OW  HW  HW  OW  HW  HW  OW  HW  HW  OW  HW  HW  
OW  HW  HW  OW  HW  HW  OW  HW  HW  OW  HW  HW  OW  HW  HW  OW  HW  HW  OW  HW  
HW  OW  HW  HW  OW  HW  HW  OW  HW  HW  OW  HW  HW  OW  HW  HW  OW  HW  HW  OW  
HW  HW  OW  HW  HW  OW  HW  HW  OW  HW  HW  OW  HW  HW  OW  HW  HW  OW  HW  HW  
OW  HW  HW  OW  HW  HW  OW  HW  HW  OW  HW  HW  OW  HW  HW  OW  HW  HW  OW  HW  
HW  OW  HW  HW  OW  HW  HW  OW  HW  HW  OW  HW  HW  OW  HW  HW  OW  HW  HW  OW  
HW  HW  OW  HW  HW  OW  HW  HW  OW  HW  HW  OW  HW  HW  OW  HW  HW  OW  HW  HW  
OW  HW  HW  OW  HW  HW  OW  HW  HW  OW  HW  HW  OW  HW  HW  OW  HW  HW  OW  HW  
HW  OW  HW  HW  OW  HW  HW  OW  HW  HW  OW  HW  HW  OW  HW  HW  OW  HW  HW  OW  
HW  HW  OW  HW  HW  OW  HW  HW  OW  HW  HW  OW  HW  HW  OW  HW  HW  OW  HW  HW  
OW  HW  HW  OW  HW  HW  OW  HW  HW  OW  HW  HW  OW  HW  HW  OW  HW  HW  OW  HW  
HW  OW  HW  HW  OW  HW  HW  OW  HW  HW  OW  HW  HW  OW  HW  HW  OW  HW  HW  OW  
HW  HW  OW  HW  HW  OW  HW  HW  OW  HW  HW  OW  HW  HW  OW  HW  HW  OW  HW  HW  
OW  HW  HW  OW  HW  HW  OW  HW  HW  OW  HW  HW  OW  HW  HW  OW  HW  HW  OW  HW  
HW  OW  HW  HW  OW  HW  HW  OW  HW  HW  OW  HW  HW  OW  HW  HW  OW  HW  HW  OW  
HW  HW  OW  HW  HW  OW  HW  HW  OW  HW  HW  OW  HW  HW  OW  HW  HW  OW  HW  HW  
OW  HW  HW  OW  HW  HW  OW  HW  HW  OW  HW  HW  OW  HW  HW  OW  HW  HW  OW  HW  
HW  OW  HW  HW  OW  HW  HW  OW  HW  HW  OW  HW  HW  OW  HW  HW  OW  HW  HW  OW  
HW  HW  OW  HW  HW  OW  HW  HW  OW  HW  HW  OW  HW  HW  OW  HW  HW  OW  HW  HW  
OW  HW  HW  OW  HW  HW  OW  HW  HW  OW  HW  HW  OW  HW  HW  OW  HW  HW  OW  HW  
HW  OW  HW  HW  OW  HW  HW  OW  HW  HW  OW  HW  HW  OW  HW  HW  OW  HW  HW  OW  
HW  HW  OW  HW  HW  OW  HW  HW  OW  HW  HW  OW  HW  HW  OW  HW  HW  OW  HW  HW  
OW  HW  HW  OW  HW  HW  OW  HW  HW  OW  HW  HW  OW  HW  HW  OW  HW  HW  OW  HW  
HW  OW  HW  HW  OW  HW  HW  OW  HW  HW  OW  HW  HW  OW  HW  HW  OW  HW  HW  OW  
HW  HW  OW  HW  HW  OW  HW  HW  OW  HW  HW  OW  HW  HW  OW  HW  HW  OW  HW  HW  
OW  HW  HW  OW  HW  HW  OW  HW  HW  OW  HW  HW  OW  HW  HW  OW  HW  HW  OW  HW  
HW  OW  HW  HW  OW  HW  HW  OW  HW  HW  OW  HW  HW  OW  HW  HW  OW  HW  HW  OW  
HW  HW  OW  HW  HW  OW  HW  HW  OW  HW  HW  OW  HW  HW  OW  HW  HW  OW  HW  HW  
OW  HW  HW  OW  HW  HW  OW  HW  HW  OW  HW  HW  OW  HW  HW  OW  HW  HW  OW  HW  
HW  OW  HW  HW  OW  HW  HW  OW  HW  HW  OW  HW  HW  OW  HW  HW  OW  HW  HW  OW  
HW  HW  OW  HW  HW  OW  HW  HW  OW  HW  HW  OW  HW  HW  OW  HW  HW  OW  HW  HW  
OW  HW  HW  OW  HW  HW  OW  HW  HW  OW  HW  HW  OW  HW  HW  OW  HW  HW  OW  HW  
HW  OW  HW  HW  OW  HW  HW  OW  HW  HW  OW  HW  HW  OW  HW  HW  OW  HW  HW  OW  
HW  HW  OW  HW  HW  OW  HW  HW  OW  HW  HW  OW  HW  HW  OW  HW  HW  OW  HW  HW  
OW  HW  HW  OW  HW  HW  OW  HW  HW  OW  HW  HW  OW  HW  HW  OW  HW  HW  OW  HW  
HW  OW  HW  HW  OW  HW  HW  OW  HW  HW  OW  HW  HW  OW  HW  HW  OW  HW  HW  OW  
HW  HW  OW  HW  HW  OW  HW  HW  OW  HW  HW  OW  HW  HW  OW  HW  HW  OW  HW  HW  
OW  HW  HW  OW  HW  HW  OW  HW  HW  OW  HW  HW  OW  HW  HW  OW  HW  HW  OW  HW  
HW  OW  HW  HW  OW  HW  HW  OW  HW  HW  OW  HW  HW  OW  HW  HW  OW  HW  HW  OW  
HW  HW  OW  HW  HW  OW  HW  HW  OW  HW  HW  OW  HW  HW  OW  HW  HW  OW  HW  HW  
OW  HW  HW  OW  HW  HW  OW  HW  HW  OW  HW  HW  OW  HW  HW  OW  HW  HW  OW  HW  
HW  OW  HW  HW  OW  HW  HW  OW  HW  HW  OW  HW  HW  OW  HW  HW  OW  HW  HW  OW  
HW  HW  OW  HW  HW  OW  HW  HW  OW  HW  HW  OW  HW  HW  OW  HW  HW  OW  HW  HW  
OW  HW  HW  OW  HW  HW  OW  HW  HW  OW  HW  HW  OW  HW  HW  OW  HW  HW  OW  HW  
HW  OW  HW  HW  OW  HW  HW  OW  HW  HW  OW  HW  HW  OW  HW  HW  OW  HW  HW  OW  
HW  HW  OW  HW  HW  OW  HW  HW  OW  HW  HW  OW  HW  HW  OW  HW  HW  OW  HW  HW  
OW  HW  HW  OW  HW  HW  OW  HW  HW  OW  HW  HW  OW  HW  HW  OW  HW  HW  OW  HW  
HW  OW  HW  HW  OW  HW  HW  OW  HW  HW  OW  HW  HW  OW  HW  HW  OW  HW  HW  OW  
HW  HW  OW  HW  HW  OW  HW  HW  OW  HW  HW  OW  HW  HW  OW  HW  HW  OW  HW  HW  
OW  HW  HW  OW  HW  HW  OW  HW  HW  OW  HW  HW  OW  HW  HW  OW  HW  HW  OW  HW  
HW  OW  HW  HW  OW  HW  HW  OW  HW  HW  OW  HW  HW  OW  HW  HW  OW  HW  HW  OW  
HW  HW  OW  HW  HW  OW  HW  HW  OW  HW  HW  OW  HW  HW  OW  HW  HW  OW  HW  HW  
OW  HW  HW  OW  HW  HW  OW  HW  HW  OW  HW  HW  OW  HW  HW  OW  HW  HW  OW  HW  
HW  OW  HW  HW  OW  HW  HW  OW  HW  HW  OW  HW  HW  OW  HW  HW  OW  HW  HW  OW  
HW  HW  OW  HW  HW  OW  HW  HW  OW  HW  HW  OW  HW  HW  OW  HW  HW  OW  HW  HW  
OW  HW  HW  OW  HW  HW  OW  HW  HW  OW  HW  HW  OW  HW  HW  OW  HW  HW  OW  HW  
HW  OW  HW  HW  OW  HW  HW  OW  HW  HW  OW  HW  HW  OW  HW  HW  OW  HW  HW  OW  
HW  HW  OW  HW  HW  OW  HW  HW  OW  HW  HW  OW  HW  HW  OW  HW  HW  OW  HW  HW  
OW  HW  HW  OW  HW  HW  OW  HW  HW  OW  HW  HW  OW  HW  HW  OW  HW  HW  OW  HW  
HW  OW  HW  HW  OW  HW  HW  OW  HW  HW  OW  HW  HW  OW  HW  HW  OW  HW  HW  OW  
HW  HW  OW  HW  HW  OW  HW  HW  OW  HW  HW  OW  HW  HW  OW  HW  HW  OW  HW  HW  
OW  HW  HW  OW  HW  HW  OW  HW  HW  OW  HW  HW  OW  HW  HW  OW  HW  HW  OW  HW  
HW  OW  HW  HW  OW  HW  HW  OW  HW  HW  OW  HW  HW  OW  HW  HW  OW  HW  HW  OW  
HW  HW  OW  HW  HW  OW  HW  HW  OW  HW  HW  OW  HW  HW  OW  HW  HW  OW  HW  HW  
OW  HW  HW  OW  HW  HW  OW  HW  HW  OW  HW  HW  OW  HW  HW  OW  HW  HW  OW  HW  
HW  OW  HW  HW  OW  HW  HW  OW  HW  HW  OW  HW  HW  OW  HW  HW  OW  HW  HW  OW  
HW  HW  OW  HW  HW  OW  HW  HW  OW  HW  HW  OW  HW  HW  OW  HW  HW  OW  HW  HW  
OW  HW  HW  OW  HW  HW  OW  HW  HW  OW  HW  HW  OW  HW  HW  OW  HW  HW  OW  HW  
HW  OW  HW  HW  OW  HW  HW  OW  HW  HW  OW  HW  HW  OW  HW  HW  OW  HW  HW  OW  
HW  HW  OW  HW  HW  OW  HW  HW  OW  HW  HW  OW  HW  HW  OW  HW  HW  OW  HW  HW  
OW  HW  HW  OW  HW  HW  OW  HW  HW  OW  HW  HW  OW  HW  HW  OW  HW  HW  OW  HW  
HW  OW  HW  HW  OW  HW  HW  OW  HW  HW  OW  HW  HW  OW  HW  HW  OW  HW  HW  OW  
HW  HW  OW  HW  HW  OW  HW  HW  OW  HW  HW  OW  HW  HW  OW  HW  HW  OW  HW  HW  
OW  HW  HW  OW  HW  HW  OW  HW  HW  OW  HW  HW  OW  HW  HW  OW  HW  HW  OW  HW  
HW  OW  HW  HW  OW  HW  HW  OW  HW  HW  OW  HW  HW  OW  HW  HW  OW  HW  HW  OW  
HW  HW  OW  HW  HW  OW  HW  HW  OW  HW  HW  OW  HW  HW  OW  HW  HW  OW  HW  HW  
OW  HW  HW  OW  HW  HW  OW  HW  HW  OW  HW  HW  OW  HW  HW  OW  HW  HW  OW  HW  
HW  OW  HW  HW  OW  HW  HW  OW  HW  HW  OW  HW  HW  OW  HW  HW  OW  HW  HW  OW  
HW  HW  OW  HW  HW  OW  HW  HW  OW  HW  HW  OW  HW  HW  OW  HW  HW  OW  HW  HW  
OW  HW  HW  OW  HW  HW  OW  HW  HW  OW  HW  HW  OW  HW  HW  OW  HW  HW  OW  HW  
HW  OW  HW  HW  OW  HW  HW  OW  HW  HW  OW  HW  HW  OW  HW  HW  OW  HW  HW  OW  
HW  HW  OW  HW  HW  OW  HW  HW  OW  HW  HW  OW  HW  HW  OW  HW  HW  OW  HW  HW  
OW  HW  HW  OW  HW  HW  OW  HW  HW  OW  HW  HW  OW  HW  HW  OW  HW  HW  OW  HW  
HW  OW  HW  HW  OW  HW  HW  OW  HW  HW  OW  HW  HW  OW  HW  HW  OW  HW  HW  OW  
HW  HW  OW  HW  HW  OW  HW  HW  OW  HW  HW  OW  HW  HW  OW  HW  HW  OW  HW  HW  
OW  HW  HW  OW  HW  HW  OW  HW  HW  OW  HW  HW  OW  HW  HW  OW  HW  HW  OW  HW  
HW  OW  HW  HW  OW  HW  HW  OW  HW  HW  OW  HW  HW  OW  HW  HW  OW  HW  HW  OW  
HW  HW  OW  HW  HW  OW  HW  HW  OW  HW  HW  OW  HW  HW  OW  HW  HW  OW  HW  HW  
OW  HW  HW  OW  HW  HW  OW  HW  HW  OW  HW  HW  OW  HW  HW  OW  HW  HW  OW  HW  
HW  OW  HW  HW  OW  HW  HW  OW  HW  HW  OW  HW  HW  OW  HW  HW  OW  HW  HW  OW  
HW  HW  OW  HW  HW  OW  HW  HW  OW  HW  HW  OW  HW  HW  OW  HW  HW  OW  HW  HW  
OW  HW  HW  OW  HW  HW  OW  HW  HW  OW  HW  HW  OW  HW  HW  OW  HW  HW  OW  HW  
HW  OW  HW  HW  OW  HW  HW  OW  HW  HW  OW  HW  HW  OW  HW  HW  OW  HW  HW  OW  
HW  HW  OW  HW  HW  OW  HW  HW  OW  HW  HW  OW  HW  HW  OW  HW  HW  OW  HW  HW  
OW  HW  HW  OW  HW  HW  OW  HW  HW  OW  HW  HW  OW  HW  HW  OW  HW  HW  OW  HW  
HW  OW  HW  HW  OW  HW  HW  OW  HW  HW  OW  HW  HW  OW  HW  HW  OW  HW  HW  OW  
HW  HW  OW  HW  HW  OW  HW  HW  OW  HW  HW  OW  HW  HW  OW  HW  HW  OW  HW  HW  
OW  HW  HW  OW  HW  HW  OW  HW  HW  OW  HW  HW  OW  HW  HW  OW  HW  HW  OW  HW  
HW  OW  HW  HW  OW  HW  HW  OW  HW  HW  OW  HW  HW  OW  HW  HW  OW  HW  HW  OW  
HW  HW  OW  HW  HW  OW  HW  HW  OW  HW  HW  OW  HW  HW  OW  HW  HW  OW  HW  HW  
OW  HW  HW  OW  HW  HW  OW  HW  HW  OW  HW  HW  OW  HW  HW  OW  HW  HW  OW  HW  
HW  OW  HW  HW  OW  HW  HW  OW  HW  HW  OW  HW  HW  OW  HW  HW  OW  HW  HW  OW  
HW  HW  OW  HW  HW  OW  HW  HW  OW  HW  HW  OW  HW  HW  OW  HW  HW  OW  HW  HW  
OW  HW  HW  OW  HW  HW  OW  HW  HW  OW  HW  HW  OW  HW  HW  OW  HW  HW  OW  HW  
HW  OW  HW  HW  OW  HW  HW  OW  HW  HW  OW  HW  HW  OW  HW  HW  OW  HW  HW  OW  
HW  HW  OW  HW  HW  OW  HW  HW  OW  HW  HW  OW  HW  HW  OW  HW  HW  OW  HW  HW  
OW  HW  HW  OW  HW  HW  OW  HW  HW  OW  HW  HW  OW  HW  HW  OW  HW  HW  OW  HW  
HW  OW  HW  HW  OW  HW  HW  OW  HW  HW  OW  HW  HW  OW  HW  HW  OW  HW  HW  OW  
HW  HW  OW  HW  HW  OW  HW  HW  OW  HW  HW  OW  HW  HW  OW  HW  HW  OW  HW  HW  
OW  HW  HW  OW  HW  HW  OW  HW  HW  OW  HW  HW  OW  HW  HW  OW  HW  HW  OW  HW  
HW  OW  HW  HW  OW  HW  HW  OW  HW  HW  OW  HW  HW  OW  HW  HW  OW  HW  HW  OW  
HW  HW  OW  HW  HW  OW  HW  HW  OW  HW  HW  OW  HW  HW  OW  HW  HW  OW  HW  HW  
OW  HW  HW  OW  HW  HW  OW  HW  HW  OW  HW  HW  OW  HW  HW  OW  HW  HW  OW  HW  
HW  OW  HW  HW  OW  HW  HW  OW  HW  HW  OW  HW  HW  OW  HW  HW  OW  HW  HW  OW  
HW  HW  OW  HW  HW  OW  HW  HW  OW  HW  HW  OW  HW  HW  OW  HW  HW  OW  HW  HW  
OW  HW  HW  OW  HW  HW  OW  HW  HW  OW  HW  HW  OW  HW  HW  OW  HW  HW  OW  HW  
HW  OW  HW  HW  OW  HW  HW  OW  HW  HW  OW  HW  HW  OW  HW  HW  OW  HW  HW  OW  
HW  HW  OW  HW  HW  OW  HW  HW  OW  HW  HW  OW  HW  HW  OW  HW  HW  OW  HW  HW  
OW  HW  HW  OW  HW  HW  OW  HW  HW  OW  HW  HW  OW  HW  HW  OW  HW  HW  OW  HW  
HW  OW  HW  HW  OW  HW  HW  OW  HW  HW  OW  HW  HW  OW  HW  HW  OW  HW  HW  OW  
HW  HW  OW  HW  HW  OW  HW  HW  OW  HW  HW  OW  HW  HW  OW  HW  HW  OW  HW  HW  
OW  HW  HW  OW  HW  HW  OW  HW  HW  OW  HW  HW  OW  HW  HW  OW  HW  HW  OW  HW  
HW  OW  HW  HW  OW  HW  HW  OW  HW  HW  OW  HW  HW  OW  HW  HW  OW  HW  HW  OW  
HW  HW  OW  HW  HW  OW  HW  HW  OW  HW  HW  OW  HW  HW  OW  HW  HW  OW  HW  HW  
OW  HW  HW  OW  HW  HW  OW  HW  HW  OW  HW  HW  OW  HW  HW  OW  HW  HW  OW  HW  
HW  OW  HW  HW  OW  HW  HW  OW  HW  HW  OW  HW  HW  OW  HW  HW  OW  HW  HW  OW  
HW  HW  OW  HW  HW  OW  HW  HW  OW  HW  HW  OW  HW  HW  OW  HW  HW  OW  HW  HW  
OW  HW  HW  OW  HW  HW  OW  HW  HW  OW  HW  HW  OW  HW  HW  OW  HW  HW  OW  HW  
HW  OW  HW  HW  OW  HW  HW  OW  HW  HW  OW  HW  HW  OW  HW  HW  OW  HW  HW  OW  
HW  HW  OW  HW  HW  OW  HW  HW  OW  HW  HW  OW  HW  HW  OW  HW  HW  OW  HW  HW  
OW  HW  HW  OW  HW  HW  OW  HW  HW  OW  HW  HW  OW  HW  HW  OW  HW  HW  OW  HW  
HW  OW  HW  HW  OW  HW  HW  OW  HW  HW  OW  HW  HW  OW  HW  HW  OW  HW  HW  OW  
HW  HW  OW  HW  HW  OW  HW  HW  OW  HW  HW  OW  HW  HW  OW  HW  HW  OW  HW  HW  
OW  HW  HW  OW  HW  HW  OW  HW  HW  OW  HW  HW  OW  HW  HW  OW  HW  HW  OW  HW  
HW  OW  HW  HW  OW  HW  HW  OW  HW  HW  OW  HW  HW  OW  HW  HW  OW  HW  HW  OW  
HW  HW  OW  HW  HW  OW  HW  HW  OW  HW  HW  OW  HW  HW  OW  HW  HW  OW  HW  HW  
OW  HW  HW  OW  HW  HW  OW  HW  HW  OW  HW  HW  OW  HW  HW  OW  HW  HW  OW  HW  
HW  OW  HW  HW  OW  HW  HW  OW  HW  HW  OW  HW  HW  OW  HW  HW  OW  HW  HW  OW  
HW  HW  OW  HW  HW  OW  HW  HW  OW  HW  HW  OW  HW  HW  OW  HW  HW  OW  HW  HW  
OW  HW  HW  OW  HW  HW  OW  HW  HW  OW  HW  HW  OW  HW  HW  OW  HW  HW  OW  HW  
HW  OW  HW  HW  OW  HW  HW  OW  HW  HW  OW  HW  HW  OW  HW  HW  OW  HW  HW  OW  
HW  HW  OW  HW  HW  OW  HW  HW  OW  HW  HW  OW  HW  HW  OW  HW  HW  OW  HW  HW  
OW  HW  HW  OW  HW  HW  OW  HW  HW  OW  HW  HW  OW  HW  HW  OW  HW  HW  OW  HW  
HW  OW  HW  HW  OW  HW  HW  OW  HW  HW  OW  HW  HW  OW  HW  HW  OW  HW  HW  OW  
HW  HW  OW  HW  HW  OW  HW  HW  OW  HW  HW  OW  HW  HW  OW  HW  HW  OW  HW  HW  
OW  HW  HW  OW  HW  HW  OW  HW  HW  OW  HW  HW  OW  HW  HW  OW  HW  HW  OW  HW  
HW  OW  HW  HW  OW  HW  HW  OW  HW  HW  OW  HW  HW  OW  HW  HW  OW  HW  HW  OW  
HW  HW  OW  HW  HW  OW  HW  HW  OW  HW  HW  OW  HW  HW  OW  HW  HW  OW  HW  HW  
OW  HW  HW  OW  HW  HW  OW  HW  HW  OW  HW  HW  OW  HW  HW  OW  HW  HW  OW  HW  
HW  OW  HW  HW  OW  HW  HW  OW  HW  HW  OW  HW  HW  OW  HW  HW  OW  HW  HW  OW  
HW  HW  OW  HW  HW  OW  HW  HW  OW  HW  HW  OW  HW  HW  OW  HW  HW  OW  HW  HW  
OW  HW  HW  OW  HW  HW  OW  HW  HW  OW  HW  HW  OW  HW  HW  OW  HW  HW  OW  HW  
HW  OW  HW  HW  OW  HW  HW  OW  HW  HW  OW  HW  HW  OW  HW  HW  OW  HW  HW  OW  
HW  HW  OW  HW  HW  OW  HW  HW  OW  HW  HW  OW  HW  HW  OW  HW  HW  OW  HW  HW  
OW  HW  HW  OW  HW  HW  OW  HW  HW  OW  HW  HW  OW  HW  HW  OW  HW  HW  OW  HW  
HW  OW  HW  HW  OW  HW  HW  OW  HW  HW  OW  HW  HW  OW  HW  HW  OW  HW  HW  OW  
HW  HW  OW  HW  HW  OW  HW  HW  OW  HW  HW  OW  HW  HW  OW  HW  HW  OW  HW  HW  
OW  HW  HW  OW  HW  HW  OW  HW  HW  OW  HW  HW  OW  HW  HW  OW  HW  HW  OW  HW  
HW  OW  HW  HW  OW  HW  HW  OW  HW  HW  OW  HW  HW  OW  HW  HW  OW  HW  HW  OW  
HW  HW  OW  HW  HW  OW  HW  HW  OW  HW  HW  OW  HW  HW  OW  HW  HW  OW  HW  HW  
OW  HW  HW  OW  HW  HW  OW  HW  HW  OW  HW  HW  OW  HW  HW  OW  HW  HW  OW  HW  
HW  OW  HW  HW  OW  HW  HW  OW  HW  HW  OW  HW  HW  OW  HW  HW  OW  HW  HW  OW  
HW  HW  OW  HW  HW  OW  HW  HW  OW  HW  HW  OW  HW  HW  OW  HW  HW  OW  HW  HW  
OW  HW  HW  OW  HW  HW  OW  HW  HW  OW  HW  HW  OW  HW  HW  OW  HW  HW  OW  HW  
HW  OW  HW  HW  OW  HW  HW  OW  HW  HW  OW  HW  HW  OW  HW  HW  OW  HW  HW  OW  
HW  HW  OW  HW  HW  OW  HW  HW  OW  HW  HW  OW  HW  HW  OW  HW  HW  OW  HW  HW  
OW  HW  HW  OW  HW  HW  OW  HW  HW  OW  HW  HW  OW  HW  HW  OW  HW  HW  OW  HW  
HW  OW  HW  HW  OW  HW  HW  OW  HW  HW  OW  HW  HW  OW  HW  HW  OW  HW  HW  OW  
HW  HW  OW  HW  HW  OW  HW  HW  OW  HW  HW  OW  HW  HW  OW  HW  HW  OW  HW  HW  
OW  HW  HW  OW  HW  HW  OW  HW  HW  OW  HW  HW  OW  HW  HW  OW  HW  HW  OW  HW  
HW  OW  HW  HW  OW  HW  HW  OW  HW  HW  OW  HW  HW  OW  HW  HW  OW  HW  HW  OW  
HW  HW  OW  HW  HW  OW  HW  HW  OW  HW  HW  OW  HW  HW  OW  HW  HW  OW  HW  HW  
OW  HW  HW  OW  HW  HW  OW  HW  HW  OW  HW  HW  OW  HW  HW  OW  HW  HW  OW  HW  
HW  OW  HW  HW  OW  HW  HW  OW  HW  HW  OW  HW  HW  OW  HW  HW  OW  HW  HW  OW  
HW  HW  OW  HW  HW  OW  HW  HW  OW  HW  HW  OW  HW  HW  OW  HW  HW  OW  HW  HW  
OW  HW  HW  OW  HW  HW  OW  HW  HW  OW  HW  HW  OW  HW  HW  OW  HW  HW  OW  HW  
HW  OW  HW  HW  OW  HW  HW  OW  HW  HW  OW  HW  HW  OW  HW  HW  OW  HW  HW  OW  
HW  HW  OW  HW  HW  OW  HW  HW  OW  HW  HW  OW  HW  HW  OW  HW  HW  OW  HW  HW  
OW  HW  HW  OW  HW  HW  OW  HW  HW  OW  HW  HW  OW  HW  HW  OW  HW  HW  OW  HW  
HW  OW  HW  HW  OW  HW  HW  OW  HW  HW  OW  HW  HW  OW  HW  HW  OW  HW  HW  OW  
HW  HW  OW  HW  HW  OW  HW  HW  OW  HW  HW  OW  HW  HW  OW  HW  HW  OW  HW  HW  
OW  HW  HW  OW  HW  HW  OW  HW  HW  OW  HW  HW  OW  HW  HW  OW  HW  HW  OW  HW  
HW  OW  HW  HW  OW  HW  HW  OW  HW  HW  OW  HW  HW  OW  HW  HW  OW  HW  HW  OW  
HW  HW  OW  HW  HW  OW  HW  HW  OW  HW  HW  OW  HW  HW  OW  HW  HW  OW  HW  HW  
OW  HW  HW  OW  HW  HW  OW  HW  HW  OW  HW  HW  OW  HW  HW  OW  HW  HW  OW  HW  
HW  OW  HW  HW  OW  HW  HW  OW  HW  HW  OW  HW  HW  OW  HW  HW  OW  HW  HW  OW  
HW  HW  OW  HW  HW  OW  HW  HW  OW  HW  HW  OW  HW  HW  OW  HW  HW  OW  HW  HW  
OW  HW  HW  OW  HW  HW  OW  HW  HW  OW  HW  HW  OW  HW  HW  OW  HW  HW  OW  HW  
HW  OW  HW  HW  OW  HW  HW  OW  HW  HW  OW  HW  HW  OW  HW  HW  OW  HW  HW  OW  
HW  HW  OW  HW  HW  OW  HW  HW  OW  HW  HW  OW  HW  HW  OW  HW  HW  OW  HW  HW  
OW  HW  HW  OW  HW  HW  OW  HW  HW  OW  HW  HW  OW  HW  HW  OW  HW  HW  OW  HW  
HW  OW  HW  HW  OW  HW  HW  OW  HW  HW  OW  HW  HW  OW  HW  HW  OW  HW  HW  OW  
HW  HW  OW  HW  HW  OW  HW  HW  OW  HW  HW  OW  HW  HW  OW  HW  HW  OW  HW  HW  
OW  HW  HW  OW  HW  HW  OW  HW  HW  OW  HW  HW  OW  HW  HW  OW  HW  HW  OW  HW  
HW  OW  HW  HW  OW  HW  HW  OW  HW  HW  OW  HW  HW  OW  HW  HW  OW  HW  HW  OW  
HW  HW  OW  HW  HW  OW  HW  HW  OW  HW  HW  OW  HW  HW  OW  HW  HW  OW  HW  HW  
OW  HW  HW  OW  HW  HW  OW  HW  HW  OW  HW  HW  OW  HW  HW  OW  HW  HW  OW  HW  
HW  OW  HW  HW  OW  HW  HW  OW  HW  HW  OW  HW  HW  OW  HW  HW  OW  HW  HW  OW  
HW  HW  OW  HW  HW  OW  HW  HW  OW  HW  HW  OW  HW  HW  OW  HW  HW  OW  HW  HW  
OW  HW  HW  OW  HW  HW  OW  HW  HW  OW  HW  HW  OW  HW  HW  OW  HW  HW  OW  HW  
HW  OW  HW  HW  OW  HW  HW  OW  HW  HW  OW  HW  HW  OW  HW  HW  OW  HW  HW  OW  
HW  HW  OW  HW  HW  OW  HW  HW  OW  HW  HW  OW  HW  HW  OW  HW  HW  OW  HW  HW  
OW  HW  HW  OW  HW  HW  OW  HW  HW  OW  HW  HW  OW  HW  HW  OW  HW  HW  OW  HW  
HW  OW  HW  HW  OW  HW  HW  OW  HW  HW  OW  HW  HW  OW  HW  HW  OW  HW  HW  OW  
HW  HW  OW  HW  HW  OW  HW  HW  OW  HW  HW  OW  HW  HW  OW  HW  HW  OW  HW  HW  
OW  HW  HW  OW  HW  HW  OW  HW  HW  OW  HW  HW  OW  HW  HW  OW  HW  HW  OW  HW  
HW  OW  HW  HW  OW  HW  HW  OW  HW  HW  OW  HW  HW  OW  HW  HW  OW  HW  HW  OW  
HW  HW  OW  HW  HW  OW  HW  HW  OW  HW  HW  OW  HW  HW  OW  HW  HW  OW  HW  HW  
OW  HW  HW  OW  HW  HW  OW  HW  HW  OW  HW  HW  OW  HW  HW  OW  HW  HW  OW  HW  
HW  OW  HW  HW  OW  HW  HW  OW  HW  HW  OW  HW  HW  OW  HW  HW  OW  HW  HW  OW  
HW  HW  OW  HW  HW  OW  HW  HW  OW  HW  HW  OW  HW  HW  OW  HW  HW  OW  HW  HW  
OW  HW  HW  OW  HW  HW  OW  HW  HW  OW  HW  HW  OW  HW  HW  OW  HW  HW  OW  HW  
HW  OW  HW  HW  OW  HW  HW  OW  HW  HW  OW  HW  HW  OW  HW  HW  OW  HW  HW  OW  
HW  HW  OW  HW  HW  OW  HW  HW  OW  HW  HW  OW  HW  HW  OW  HW  HW  OW  HW  HW  
OW  HW  HW  OW  HW  HW  OW  HW  HW  OW  HW  HW  OW  HW  HW  OW  HW  HW  OW  HW  
HW  OW  HW  HW  OW  HW  HW  OW  HW  HW  OW  HW  HW  OW  HW  HW  OW  HW  HW  OW  
HW  HW  OW  HW  HW  OW  HW  HW  OW  HW  HW  OW  HW  HW  OW  HW  HW  OW  HW  HW  
OW  HW  HW  OW  HW  HW  OW  HW  HW  OW  HW  HW  OW  HW  HW  OW  HW  HW  OW  HW  
HW  OW  HW  HW  OW  HW  HW  OW  HW  HW  OW  HW  HW  OW  HW  HW  OW  HW  HW  OW  
HW  HW  OW  HW  HW  OW  HW  HW  OW  HW  HW  OW  HW  HW  OW  HW  HW  OW  HW  HW  
OW  HW  HW  OW  HW  HW  OW  HW  HW  OW  HW  HW  OW  HW  HW  OW  HW  HW  OW  HW  
HW  OW  HW  HW  OW  HW  HW  OW  HW  HW  OW  HW  HW  OW  HW  HW  OW  HW  HW  OW  
HW  HW  OW  HW  HW  OW  HW  HW  OW  HW  HW  OW  HW  HW  OW  HW  HW  OW  HW  HW  
OW  HW  HW  OW  HW  HW  OW  HW  HW  OW  HW  HW  OW  HW  HW  OW  HW  HW  OW  HW  
HW  OW  HW  HW  OW  HW  HW  OW  HW  HW  OW  HW  HW  OW  HW  HW  OW  HW  HW  OW  
HW  HW  OW  HW  HW  OW  HW  HW  OW  HW  HW  OW  HW  HW  OW  HW  HW  OW  HW  HW  
OW  HW  HW  OW  HW  HW  OW  HW  HW  OW  HW  HW  OW  HW  HW  OW  HW  HW  OW  HW  
HW  OW  HW  HW  OW  HW  HW  OW  HW  HW  OW  HW  HW  OW  HW  HW  OW  HW  HW  OW  
HW  HW  OW  HW  HW  OW  HW  HW  OW  HW  HW  OW  HW  HW  OW  HW  HW  OW  HW  HW  
OW  HW  HW  OW  HW  HW  OW  HW  HW  OW  HW  HW  OW  HW  HW  OW  HW  HW  OW  HW  
HW  OW  HW  HW  OW  HW  HW  OW  HW  HW  OW  HW  HW  OW  HW  HW  OW  HW  HW  OW  
HW  HW  OW  HW  HW  OW  HW  HW  OW  HW  HW  OW  HW  HW  OW  HW  HW  OW  HW  HW  
OW  HW  HW  OW  HW  HW  OW  HW  HW  OW  HW  HW  OW  HW  HW  OW  HW  HW  OW  HW  
HW  OW  HW  HW  OW  HW  HW  OW  HW  HW  OW  HW  HW  OW  HW  HW  OW  HW  HW  OW  
HW  HW  OW  HW  HW  OW  HW  HW  OW  HW  HW  OW  HW  HW  OW  HW  HW  OW  HW  HW  
OW  HW  HW  OW  HW  HW  OW  HW  HW  OW  HW  HW  OW  HW  HW  OW  HW  HW  OW  HW  
HW  OW  HW  HW  OW  HW  HW  OW  HW  HW  OW  HW  HW  OW  HW  HW  OW  HW  HW  OW  
HW  HW  OW  HW  HW  OW  HW  HW  OW  HW  HW  OW  HW  HW  OW  HW  HW  OW  HW  HW  
OW  HW  HW  OW  HW  HW  OW  HW  HW  OW  HW  HW  OW  HW  HW  OW  HW  HW  OW  HW  
HW  OW  HW  HW  OW  HW  HW  OW  HW  HW  OW  HW  HW  OW  HW  HW  OW  HW  HW  OW  
HW  HW  OW  HW  HW  OW  HW  HW  OW  HW  HW  OW  HW  HW  OW  HW  HW  OW  HW  HW  
OW  HW  HW  OW  HW  HW  OW  HW  HW  OW  HW  HW  OW  HW  HW  OW  HW  HW  OW  HW  
HW  OW  HW  HW  OW  HW  HW  OW  HW  HW  OW  HW  HW  OW  HW  HW  OW  HW  HW  OW  
HW  HW  OW  HW  HW  OW  HW  HW  OW  HW  HW  OW  HW  HW  OW  HW  HW  OW  HW  HW  
OW  HW  HW  OW  HW  HW  OW  HW  HW  OW  HW  HW  OW  HW  HW  OW  HW  HW  OW  HW  
HW  OW  HW  HW  OW  HW  HW  OW  HW  HW  OW  HW  HW  OW  HW  HW  OW  HW  HW  OW  
HW  HW  OW  HW  HW  OW  HW  HW  OW  HW  HW  OW  HW  HW  OW  HW  HW  OW  HW  HW  
OW  HW  HW  OW  HW  HW  OW  HW  HW  OW  HW  HW  OW  HW  HW  OW  HW  HW  OW  HW  
HW  OW  HW  HW  OW  HW  HW  OW  HW  HW  OW  HW  HW  OW  HW  HW  OW  HW  HW  OW  
HW  HW  OW  HW  HW  OW  HW  HW  OW  HW  HW  OW  HW  HW  OW  HW  HW  OW  HW  HW  
OW  HW  HW  OW  HW  HW  OW  HW  HW  OW  HW  HW  OW  HW  HW  OW  HW  HW  OW  HW  
HW  OW  HW  HW  OW  HW  HW  OW  HW  HW  OW  HW  HW  OW  HW  HW  OW  HW  HW  OW  
HW  HW  OW  HW  HW  OW  HW  HW  OW  HW  HW  OW  HW  HW  OW  HW  HW  OW  HW  HW  
OW  HW  HW  OW  HW  HW  OW  HW  HW  OW  HW  HW  OW  HW  HW  OW  HW  HW  OW  HW  
HW  OW  HW  HW  OW  HW  HW  OW  HW  HW  OW  HW  HW  OW  HW  HW  OW  HW  HW  OW  
HW  HW  OW  HW  HW  OW  HW  HW  OW  HW  HW  OW  HW  HW  OW  HW  HW  OW  HW  HW  
OW  HW  HW  OW  HW  HW  OW  HW  HW  OW  HW  HW  OW  HW  HW  OW  HW  HW  OW  HW  
HW  OW  HW  HW  OW  HW  HW  OW  HW  HW  OW  HW  HW  OW  HW  HW  OW  HW  HW  OW  
HW  HW  OW  HW  HW  OW  HW  HW  OW  HW  HW  OW  HW  HW  OW  HW  HW  OW  HW  HW  
OW  HW  HW  OW  HW  HW  OW  HW  HW  OW  HW  HW  OW  HW  HW  OW  HW  HW  OW  HW  
HW  OW  HW  HW  OW  HW  HW  OW  HW  HW  OW  HW  HW  OW  HW  HW  OW  HW  HW  OW  
HW  HW  OW  HW  HW  OW  HW  HW  OW  HW  HW  OW  HW  HW  OW  HW  HW  OW  HW  HW  
OW  HW  HW  OW  HW  HW  OW  HW  HW  OW  HW  HW  OW  HW  HW  OW  HW  HW  OW  HW  
HW  OW  HW  HW  OW  HW  HW  OW  HW  HW  OW  HW  HW  OW  HW  HW  OW  HW  HW  OW  
HW  HW  OW  HW  HW  OW  HW  HW  OW  HW  HW  OW  HW  HW  OW  HW  HW  OW  HW  HW  
OW  HW  HW  OW  HW  HW  OW  HW  HW  OW  HW  HW  OW  HW  HW  OW  HW  HW  OW  HW  
HW  OW  HW  HW  OW  HW  HW  OW  HW  HW  OW  HW  HW  OW  HW  HW  OW  HW  HW  OW  
HW  HW  OW  HW  HW  OW  HW  HW  OW  HW  HW  OW  HW  HW  OW  HW  HW  OW  HW  HW  
OW  HW  HW  OW  HW  HW  OW  HW  HW  OW  HW  HW  OW  HW  HW  OW  HW  HW  OW  HW  
HW  OW  HW  HW  OW  HW  HW  OW  HW  HW  OW  HW  HW  OW  HW  HW  OW  HW  HW  OW  
HW  HW  OW  HW  HW  OW  HW  HW  OW  HW  HW  OW  HW  HW  OW  HW  HW  OW  HW  HW  
OW  HW  HW  OW  HW  HW  OW  HW  HW  OW  HW  HW  OW  HW  HW  OW  HW  HW  OW  HW  
HW  OW  HW  HW  OW  HW  HW  OW  HW  HW  OW  HW  HW  OW  HW  HW  OW  HW  HW  OW  
HW  HW  OW  HW  HW  OW  HW  HW  OW  HW  HW  OW  HW  HW  OW  HW  HW  OW  HW  HW  
OW  HW  HW  OW  HW  HW  OW  HW  HW  OW  HW  HW  OW  HW  HW  OW  HW  HW  OW  HW  
HW  OW  HW  HW  OW  HW  HW  OW  HW  HW  OW  HW  HW  OW  HW  HW  OW  HW  HW  OW  
HW  HW  OW  HW  HW  OW  HW  HW  OW  HW  HW  OW  HW  HW  OW  HW  HW  OW  HW  HW  
OW  HW  HW  OW  HW  HW  OW  HW  HW  OW  HW  HW  OW  HW  HW  OW  HW  HW  OW  HW  
HW  OW  HW  HW  OW  HW  HW  OW  HW  HW  OW  HW  HW  OW  HW  HW  OW  HW  HW  OW  
HW  HW  OW  HW  HW  OW  HW  HW  OW  HW  HW  OW  HW  HW  OW  HW  HW  OW  HW  HW  
OW  HW  HW  OW  HW  HW  OW  HW  HW  OW  HW  HW  OW  HW  HW  OW  HW  HW  OW  HW  
HW  OW  HW  HW  OW  HW  HW  OW  HW  HW  OW  HW  HW  OW  HW  HW  OW  HW  HW  OW  
HW  HW  OW  HW  HW  OW  HW  HW  OW  HW  HW  OW  HW  HW  OW  HW  HW  OW  HW  HW  
OW  HW  HW  OW  HW  HW  OW  HW  HW  OW  HW  HW  OW  HW  HW  OW  HW  HW  OW  HW  
HW  OW  HW  HW  OW  HW  HW  OW  HW  HW  OW  HW  HW  OW  HW  HW  OW  HW  HW  OW  
HW  HW  OW  HW  HW  OW  HW  HW  OW  HW  HW  OW  HW  HW  OW  HW  HW  OW  HW  HW  
OW  HW  HW  OW  HW  HW  OW  HW  HW  OW  HW  HW  OW  HW  HW  OW  HW  HW  OW  HW  
HW  OW  HW  HW  OW  HW  HW  OW  HW  HW  OW  HW  HW  OW  HW  HW  OW  HW  HW  OW  
HW  HW  OW  HW  HW  OW  HW  HW  OW  HW  HW  OW  HW  HW  OW  HW  HW  OW  HW  HW  
OW  HW  HW  OW  HW  HW  OW  HW  HW  OW  HW  HW  OW  HW  HW  OW  HW  HW  OW  HW  
HW  OW  HW  HW  OW  HW  HW  OW  HW  HW  OW  HW  HW  OW  HW  HW  OW  HW  HW  OW  
HW  HW  OW  HW  HW  OW  HW  HW  OW  HW  HW  OW  HW  HW  OW  HW  HW  OW  HW  HW  
OW  HW  HW  OW  HW  HW  OW  HW  HW  OW  HW  HW  OW  HW  HW  OW  HW  HW  OW  HW  
HW  OW  HW  HW  OW  HW  HW  OW  HW  HW  OW  HW  HW  OW  HW  HW  OW  HW  HW  OW  
HW  HW  OW  HW  HW  OW  HW  HW  OW  HW  HW  OW  HW  HW  OW  HW  HW  OW  HW  HW  
OW  HW  HW  OW  HW  HW  OW  HW  HW  OW  HW  HW  OW  HW  HW  OW  HW  HW  OW  HW  
HW  OW  HW  HW  OW  HW  HW  OW  HW  HW  OW  HW  HW  OW  HW  HW  OW  HW  HW  OW  
HW  HW  OW  HW  HW  OW  HW  HW  OW  HW  HW  OW  HW  HW  OW  HW  HW  OW  HW  HW  
OW  HW  HW  OW  HW  HW  OW  HW  HW  OW  HW  HW  OW  HW  HW  OW  HW  HW  OW  HW  
HW  OW  HW  HW  OW  HW  HW  OW  HW  HW  OW  HW  HW  OW  HW  HW  OW  HW  HW  OW  
HW  HW  OW  HW  HW  OW  HW  HW  OW  HW  HW  OW  HW  HW  OW  HW  HW  OW  HW  HW  
OW  HW  HW  OW  HW  HW  OW  HW  HW  OW  HW  HW  OW  HW  HW  OW  HW  HW  OW  HW  
HW  OW  HW  HW  OW  HW  HW  OW  HW  HW  OW  HW  HW  OW  HW  HW  OW  HW  HW  OW  
HW  HW  OW  HW  HW  OW  HW  HW  OW  HW  HW  OW  HW  HW  OW  HW  HW  OW  HW  HW  
OW  HW  HW  OW  HW  HW  OW  HW  HW  OW  HW  HW  OW  HW  HW  OW  HW  HW  OW  HW  
HW  OW  HW  HW  OW  HW  HW  OW  HW  HW  OW  HW  HW  OW  HW  HW  OW  HW  HW  OW  
HW  HW  OW  HW  HW  OW  HW  HW  OW  HW  HW  OW  HW  HW  OW  HW  HW  OW  HW  HW  
OW  HW  HW  OW  HW  HW  OW  HW  HW  OW  HW  HW  OW  HW  HW  OW  HW  HW  OW  HW  
HW  OW  HW  HW  OW  HW  HW  OW  HW  HW  OW  HW  HW  OW  HW  HW  OW  HW  HW  OW  
HW  HW  OW  HW  HW  OW  HW  HW  OW  HW  HW  OW  HW  HW  OW  HW  HW  OW  HW  HW  
OW  HW  HW  OW  HW  HW  OW  HW  HW  OW  HW  HW  OW  HW  HW  OW  HW  HW  OW  HW  
HW  OW  HW  HW  OW  HW  HW  OW  HW  HW  OW  HW  HW  OW  HW  HW  OW  HW  HW  OW  
HW  HW  OW  HW  HW  OW  HW  HW  OW  HW  HW  OW  HW  HW  OW  HW  HW  OW  HW  HW  
OW  HW  HW  OW  HW  HW  OW  HW  HW  OW  HW  HW  OW  HW  HW  OW  HW  HW  OW  HW  
HW  OW  HW  HW  OW  HW  HW  OW  HW  HW  OW  HW  HW  OW  HW  HW  OW  HW  HW  OW  
HW  HW  OW  HW  HW  OW  HW  HW  OW  HW  HW  OW  HW  HW  OW  HW  HW  OW  HW  HW  
OW  HW  HW  OW  HW  HW  OW  HW  HW  OW  HW  HW  OW  HW  HW  OW  HW  HW  OW  HW  
HW  OW  HW  HW  OW  HW  HW  OW  HW  HW  OW  HW  HW  OW  HW  HW  OW  HW  HW  OW  
HW  HW  OW  HW  HW  OW  HW  HW  OW  HW  HW  OW  HW  HW  OW  HW  HW  OW  HW  HW  
OW  HW  HW  OW  HW  HW  OW  HW  HW  OW  HW  HW  OW  HW  HW  OW  HW  HW  OW  HW  
HW  OW  HW  HW  OW  HW  HW  OW  HW  HW  OW  HW  HW  OW  HW  HW  OW  HW  HW  OW  
HW  HW  OW  HW  HW  OW  HW  HW  OW  HW  HW  OW  HW  HW  OW  HW  HW  OW  HW  HW  
OW  HW  HW  OW  HW  HW  OW  HW  HW  OW  HW  HW  OW  HW  HW  OW  HW  HW  OW  HW  
HW  OW  HW  HW  OW  HW  HW  OW  HW  HW  OW  HW  HW  OW  HW  HW  OW  HW  HW  OW  
HW  HW  OW  HW  HW  OW  HW  HW  OW  HW  HW  OW  HW  HW  OW  HW  HW  OW  HW  HW  
OW  HW  HW  OW  HW  HW  OW  HW  HW  OW  HW  HW  OW  HW  HW  OW  HW  HW  OW  HW  
HW  OW  HW  HW  OW  HW  HW  OW  HW  HW  OW  HW  HW  OW  HW  HW  OW  HW  HW  OW  
HW  HW  OW  HW  HW  OW  HW  HW  OW  HW  HW  OW  HW  HW  OW  HW  HW  OW  HW  HW  
OW  HW  HW  OW  HW  HW  OW  HW  HW  OW  HW  HW  OW  HW  HW  OW  HW  HW  OW  HW  
HW  OW  HW  HW  OW  HW  HW  OW  HW  HW  OW  HW  HW  OW  HW  HW  OW  HW  HW  OW  
HW  HW  OW  HW  HW  OW  HW  HW  OW  HW  HW  OW  HW  HW  OW  HW  HW  OW  HW  HW  
OW  HW  HW  OW  HW  HW  OW  HW  HW  OW  HW  HW  OW  HW  HW  OW  HW  HW  OW  HW  
HW  OW  HW  HW  OW  HW  HW  OW  HW  HW  OW  HW  HW  OW  HW  HW  OW  HW  HW  OW  
HW  HW  OW  HW  HW  OW  HW  HW  OW  HW  HW  OW  HW  HW  OW  HW  HW  OW  HW  HW  
OW  HW  HW  OW  HW  HW  OW  HW  HW  OW  HW  HW  OW  HW  HW  OW  HW  HW  OW  HW  
HW  OW  HW  HW  OW  HW  HW  OW  HW  HW  OW  HW  HW  OW  HW  HW  OW  HW  HW  OW  
HW  HW  OW  HW  HW  OW  HW  HW  OW  HW  HW  OW  HW  HW  OW  HW  HW  OW  HW  HW  
OW  HW  HW  OW  HW  HW  OW  HW  HW  OW  HW  HW  OW  HW  HW  OW  HW  HW  OW  HW  
HW  OW  HW  HW  OW  HW  HW  OW  HW  HW  OW  HW  HW  OW  HW  HW  OW  HW  HW  OW  
HW  HW  OW  HW  HW  OW  HW  HW  OW  HW  HW  OW  HW  HW  OW  HW  HW  OW  HW  HW  
OW  HW  HW  OW  HW  HW  OW  HW  HW  OW  HW  HW  OW  HW  HW  OW  HW  HW  OW  HW  
HW  OW  HW  HW  OW  HW  HW  OW  HW  HW  OW  HW  HW  OW  HW  HW  OW  HW  HW  OW  
HW  HW  OW  HW  HW  OW  HW  HW  OW  HW  HW  OW  HW  HW  OW  HW  HW  OW  HW  HW  
OW  HW  HW  OW  HW  HW  OW  HW  HW  OW  HW  HW  OW  HW  HW  OW  HW  HW  OW  HW  
HW  OW  HW  HW  OW  HW  HW  OW  HW  HW  OW  HW  HW  OW  HW  HW  OW  HW  HW  OW  
HW  HW  OW  HW  HW  OW  HW  HW  OW  HW  HW  OW  HW  HW  OW  HW  HW  OW  HW  HW  
OW  HW  HW  OW  HW  HW  OW  HW  HW  OW  HW  HW  OW  HW  HW  OW  HW  HW  OW  HW  
HW  OW  HW  HW  OW  HW  HW  OW  HW  HW  OW  HW  HW  OW  HW  HW  OW  HW  HW  OW  
HW  HW  OW  HW  HW  OW  HW  HW  OW  HW  HW  OW  HW  HW  OW  HW  HW  OW  HW  HW  
OW  HW  HW  OW  HW  HW  OW  HW  HW  OW  HW  HW  OW  HW  HW  OW  HW  HW  OW  HW  
HW  OW  HW  HW  OW  HW  HW  OW  HW  HW  OW  HW  HW  OW  HW  HW  OW  HW  HW  OW  
HW  HW  OW  HW  HW  OW  HW  HW  OW  HW  HW  OW  HW  HW  OW  HW  HW  OW  HW  HW  
OW  HW  HW  OW  HW  HW  OW  HW  HW  OW  HW  HW  OW  HW  HW  OW  HW  HW  OW  HW  
HW  OW  HW  HW  OW  HW  HW  OW  HW  HW  OW  HW  HW  OW  HW  HW  OW  HW  HW  OW  
HW  HW  OW  HW  HW  OW  HW  HW  OW  HW  HW  OW  HW  HW  OW  HW  HW  OW  HW  HW  
OW  HW  HW  OW  HW  HW  OW  HW  HW  OW  HW  HW  OW  HW  HW  OW  HW  HW  OW  HW  
HW  OW  HW  HW  OW  HW  HW  OW  HW  HW  OW  HW  HW  OW  HW  HW  OW  HW  HW  OW  
HW  HW  OW  HW  HW  OW  HW  HW  OW  HW  HW  OW  HW  HW  OW  HW  HW  OW  HW  HW  
OW  HW  HW  OW  HW  HW  OW  HW  HW  OW  HW  HW  OW  HW  HW  OW  HW  HW  OW  HW  
HW  OW  HW  HW  OW  HW  HW  OW  HW  HW  OW  HW  HW  OW  HW  HW  OW  HW  HW  OW  
HW  HW  OW  HW  HW  OW  HW  HW  OW  HW  HW  OW  HW  HW  OW  HW  HW  OW  HW  HW  
OW  HW  HW  OW  HW  HW  OW  HW  HW  OW  HW  HW  OW  HW  HW  OW  HW  HW  OW  HW  
HW  OW  HW  HW  OW  HW  HW  OW  HW  HW  OW  HW  HW  OW  HW  HW  OW  HW  HW  OW  
HW  HW  OW  HW  HW  OW  HW  HW  OW  HW  HW  OW  HW  HW  OW  HW  HW  OW  HW  HW  
OW  HW  HW  OW  HW  HW  OW  HW  HW  OW  HW  HW  OW  HW  HW  OW  HW  HW  OW  HW  
HW  OW  HW  HW  OW  HW  HW  OW  HW  HW  OW  HW  HW  OW  HW  HW  OW  HW  HW  OW  
HW  HW  OW  HW  HW  OW  HW  HW  OW  HW  HW  OW  HW  HW  OW  HW  HW  OW  HW  HW  
OW  HW  HW  OW  HW  HW  OW  HW  HW  OW  HW  HW  OW  HW  HW  OW  HW  HW  OW  HW  
HW  OW  HW  HW  OW  HW  HW  OW  HW  HW  OW  HW  HW  OW  HW  HW  OW  HW  HW  OW  
HW  HW  OW  HW  HW  OW  HW  HW  OW  HW  HW  OW  HW  HW  OW  HW  HW  OW  HW  HW  
OW  HW  HW  OW  HW  HW  OW  HW  HW  OW  HW  HW  OW  HW  HW  OW  HW  HW  OW  HW  
HW  OW  HW  HW  OW  HW  HW  OW  HW  HW  OW  HW  HW  OW  HW  HW  OW  HW  HW  OW  
HW  HW  OW  HW  HW  OW  HW  HW  OW  HW  HW  OW  HW  HW  OW  HW  HW  OW  HW  HW  
OW  HW  HW  OW  HW  HW  OW  HW  HW  OW  HW  HW  OW  HW  HW  OW  HW  HW  OW  HW  
HW  OW  HW  HW  OW  HW  HW  OW  HW  HW  OW  HW  HW  OW  HW  HW  OW  HW  HW  OW  
HW  HW  OW  HW  HW  OW  HW  HW  OW  HW  HW  OW  HW  HW  OW  HW  HW  OW  HW  HW  
OW  HW  HW  OW  HW  HW  OW  HW  HW  OW  HW  HW  OW  HW  HW  OW  HW  HW  OW  HW  
HW  OW  HW  HW  OW  HW  HW  OW  HW  HW  OW  HW  HW  OW  HW  HW  OW  HW  HW  OW  
HW  HW  OW  HW  HW  OW  HW  HW  OW  HW  HW  OW  HW  HW  OW  HW  HW  OW  HW  HW  
OW  HW  HW  OW  HW  HW  OW  HW  HW  OW  HW  HW  OW  HW  HW  OW  HW  HW  OW  HW  
HW  OW  HW  HW  OW  HW  HW  OW  HW  HW  OW  HW  HW  OW  HW  HW  OW  HW  HW  OW  
HW  HW  OW  HW  HW  OW  HW  HW  OW  HW  HW  OW  HW  HW  OW  HW  HW  OW  HW  HW  
OW  HW  HW  OW  HW  HW  OW  HW  HW  OW  HW  HW  OW  HW  HW  OW  HW  HW  OW  HW  
HW  OW  HW  HW  OW  HW  HW  OW  HW  HW  OW  HW  HW  OW  HW  HW  OW  HW  HW  OW  
HW  HW  OW  HW  HW  OW  HW  HW  OW  HW  HW  OW  HW  HW  OW  HW  HW  OW  HW  HW  
OW  HW  HW  OW  HW  HW  OW  HW  HW  OW  HW  HW  OW  HW  HW  OW  HW  HW  OW  HW  
HW  OW  HW  HW  OW  HW  HW  OW  HW  HW  OW  HW  HW  OW  HW  HW  OW  HW  HW  OW  
HW  HW  OW  HW  HW  OW  HW  HW  OW  HW  HW  OW  HW  HW  OW  HW  HW  OW  HW  HW  
OW  HW  HW  OW  HW  HW  OW  HW  HW  OW  HW  HW  OW  HW  HW  OW  HW  HW  OW  HW  
HW  OW  HW  HW  OW  HW  HW  OW  HW  HW  OW  HW  HW  OW  HW  HW  OW  HW  HW  OW  
HW  HW  OW  HW  HW  OW  HW  HW  OW  HW  HW  OW  HW  HW  OW  HW  HW  OW  HW  HW  
OW  HW  HW  OW  HW  HW  OW  HW  HW  OW  HW  HW  OW  HW  HW  OW  HW  HW  OW  HW  
HW  OW  HW  HW  OW  HW  HW  OW  HW  HW  OW  HW  HW  OW  HW  HW  OW  HW  HW  OW  
HW  HW  OW  HW  HW  OW  HW  HW  OW  HW  HW  OW  HW  HW  OW  HW  HW  OW  HW  HW  
OW  HW  HW  OW  HW  HW  OW  HW  HW  OW  HW  HW  OW  HW  HW  OW  HW  HW  OW  HW  
HW  OW  HW  HW  OW  HW  HW  OW  HW  HW  OW  HW  HW  OW  HW  HW  OW  HW  HW  OW  
HW  HW  OW  HW  HW  OW  HW  HW  OW  HW  HW  OW  HW  HW  OW  HW  HW  OW  HW  HW  
OW  HW  HW  OW  HW  HW  OW  HW  HW  OW  HW  HW  OW  HW  HW  OW  HW  HW  OW  HW  
HW  OW  HW  HW  OW  HW  HW  OW  HW  HW  OW  HW  HW  OW  HW  HW  OW  HW  HW  OW  
HW  HW  OW  HW  HW  OW  HW  HW  OW  HW  HW  OW  HW  HW  OW  HW  HW  OW  HW  HW  
OW  HW  HW  OW  HW  HW  OW  HW  HW  OW  HW  HW  OW  HW  HW  OW  HW  HW  OW  HW  
HW  OW  HW  HW  OW  HW  HW  OW  HW  HW  OW  HW  HW  OW  HW  HW  OW  HW  HW  OW  
HW  HW  OW  HW  HW  OW  HW  HW  OW  HW  HW  OW  HW  HW  OW  HW  HW  OW  HW  HW  
OW  HW  HW  OW  HW  HW  OW  HW  HW  OW  HW  HW  OW  HW  HW  OW  HW  HW  OW  HW  
HW  OW  HW  HW  OW  HW  HW  OW  HW  HW  OW  HW  HW  OW  HW  HW  OW  HW  HW  OW  
HW  HW  OW  HW  HW  OW  HW  HW  OW  HW  HW  OW  HW  HW  OW  HW  HW  OW  HW  HW  
OW  HW  HW  OW  HW  HW  OW  HW  HW  OW  HW  HW  OW  HW  HW  OW  HW  HW  OW  HW  
HW  OW  HW  HW  OW  HW  HW  OW  HW  HW  OW  HW  HW  OW  HW  HW  OW  HW  HW  OW  
HW  HW  OW  HW  HW  OW  HW  HW  OW  HW  HW  OW  HW  HW  OW  HW  HW  OW  HW  HW  
OW  HW  HW  OW  HW  HW  OW  HW  HW  OW  HW  HW  OW  HW  HW  OW  HW  HW  OW  HW  
HW  OW  HW  HW  OW  HW  HW  OW  HW  HW  OW  HW  HW  OW  HW  HW  OW  HW  HW  OW  
HW  HW  OW  HW  HW  OW  HW  HW  OW  HW  HW  OW  HW  HW  OW  HW  HW  OW  HW  HW  
OW  HW  HW  OW  HW  HW  OW  HW  HW  OW  HW  HW  OW  HW  HW  OW  HW  HW  OW  HW  
HW  OW  HW  HW  OW  HW  HW  OW  HW  HW  OW  HW  HW  OW  HW  HW  OW  HW  HW  OW  
HW  HW  OW  HW  HW  OW  HW  HW  OW  HW  HW  OW  HW  HW  OW  HW  HW  OW  HW  HW  
OW  HW  HW  OW  HW  HW  OW  HW  HW  OW  HW  HW  OW  HW  HW  OW  HW  HW  OW  HW  
HW  OW  HW  HW  OW  HW  HW  OW  HW  HW  OW  HW  HW  OW  HW  HW  OW  HW  HW  OW  
HW  HW  OW  HW  HW  OW  HW  HW  OW  HW  HW  OW  HW  HW  OW  HW  HW  OW  HW  HW  
OW  HW  HW  OW  HW  HW  OW  HW  HW  OW  HW  HW  OW  HW  HW  OW  HW  HW  OW  HW  
HW  OW  HW  HW  OW  HW  HW  OW  HW  HW  OW  HW  HW  OW  HW  HW  OW  HW  HW  OW  
HW  HW  OW  HW  HW  OW  HW  HW  OW  HW  HW  OW  HW  HW  OW  HW  HW  OW  HW  HW  
OW  HW  HW  OW  HW  HW  OW  HW  HW  OW  HW  HW  OW  HW  HW  OW  HW  HW  OW  HW  
HW  OW  HW  HW  OW  HW  HW  OW  HW  HW  OW  HW  HW  OW  HW  HW  OW  HW  HW  OW  
HW  HW  OW  HW  HW  OW  HW  HW  OW  HW  HW  OW  HW  HW  OW  HW  HW  OW  HW  HW  
OW  HW  HW  OW  HW  HW  OW  HW  HW  OW  HW  HW  OW  HW  HW  OW  HW  HW  OW  HW  
HW  OW  HW  HW  OW  HW  HW  OW  HW  HW  OW  HW  HW  OW  HW  HW  OW  HW  HW  OW  
HW  HW  OW  HW  HW  OW  HW  HW  OW  HW  HW  OW  HW  HW  OW  HW  HW  OW  HW  HW  
OW  HW  HW  OW  HW  HW  OW  HW  HW  OW  HW  HW  OW  HW  HW  OW  HW  HW  OW  HW  
HW  OW  HW  HW  OW  HW  HW  OW  HW  HW  OW  HW  HW  OW  HW  HW  OW  HW  HW  OW  
HW  HW  OW  HW  HW  OW  HW  HW  OW  HW  HW  OW  HW  HW  OW  HW  HW  OW  HW  HW  
OW  HW  HW  OW  HW  HW  OW  HW  HW  OW  HW  HW  OW  HW  HW  OW  HW  HW  OW  HW  
HW  OW  HW  HW  OW  HW  HW  OW  HW  HW  OW  HW  HW  OW  HW  HW  OW  HW  HW  OW  
HW  HW  OW  HW  HW  OW  HW  HW  OW  HW  HW  OW  HW  HW  OW  HW  HW  OW  HW  HW  
OW  HW  HW  OW  HW  HW  OW  HW  HW  OW  HW  HW  OW  HW  HW  OW  HW  HW  OW  HW  
HW  OW  HW  HW  OW  HW  HW  OW  HW  HW  OW  HW  HW  OW  HW  HW  OW  HW  HW  OW  
HW  HW  OW  HW  HW  OW  HW  HW  OW  HW  HW  OW  HW  HW  OW  HW  HW  OW  HW  HW  
OW  HW  HW  OW  HW  HW  OW  HW  HW  OW  HW  HW  OW  HW  HW  OW  HW  HW  OW  HW  
HW  OW  HW  HW  OW  HW  HW  OW  HW  HW  OW  HW  HW  OW  HW  HW  OW  HW  HW  OW  
HW  HW  OW  HW  HW  OW  HW  HW  OW  HW  HW  OW  HW  HW  OW  HW  HW  OW  HW  HW  
OW  HW  HW  OW  HW  HW  OW  HW  HW  OW  HW  HW  OW  HW  HW  OW  HW  HW  OW  HW  
HW  OW  HW  HW  OW  HW  HW  OW  HW  HW  OW  HW  HW  OW  HW  HW  OW  HW  HW  OW  
HW  HW  OW  HW  HW  OW  HW  HW  OW  HW  HW  OW  HW  HW  OW  HW  HW  OW  HW  HW  
OW  HW  HW  OW  HW  HW  OW  HW  HW  OW  HW  HW  OW  HW  HW  OW  HW  HW  OW  HW  
HW  OW  HW  HW  OW  HW  HW  OW  HW  HW  OW  HW  HW  OW  HW  HW  OW  HW  HW  OW  
HW  HW  OW  HW  HW  OW  HW  HW  OW  HW  HW  OW  HW  HW  OW  HW  HW  OW  HW  HW  
OW  HW  HW  OW  HW  HW  OW  HW  HW  OW  HW  HW  OW  HW  HW  OW  HW  HW  OW  HW  
HW  OW  HW  HW  OW  HW  HW  OW  HW  HW  OW  HW  HW  OW  HW  HW  OW  HW  HW  OW  
HW  HW  OW  HW  HW  OW  HW  HW  OW  HW  HW  OW  HW  HW  OW  HW  HW  OW  HW  HW  
OW  HW  HW  OW  HW  HW  OW  HW  HW  OW  HW  HW  OW  HW  HW  OW  HW  HW  OW  HW  
HW  OW  HW  HW  OW  HW  HW  OW  HW  HW  OW  HW  HW  OW  HW  HW  OW  HW  HW  OW  
HW  HW  OW  HW  HW  OW  HW  HW  OW  HW  HW  OW  HW  HW  OW  HW  HW  OW  HW  HW  
OW  HW  HW  OW  HW  HW  OW  HW  HW  OW  HW  HW  OW  HW  HW  OW  HW  HW  OW  HW  
HW  OW  HW  HW  OW  HW  HW  OW  HW  HW  OW  HW  HW  OW  HW  HW  OW  HW  HW  OW  
HW  HW  OW  HW  HW  OW  HW  HW  OW  HW  HW  OW  HW  HW  OW  HW  HW  OW  HW  HW  
OW  HW  HW  OW  HW  HW  OW  HW  HW  OW  HW  HW  OW  HW  HW  OW  HW  HW  OW  HW  
HW  OW  HW  HW  OW  HW  HW  OW  HW  HW  OW  HW  HW  OW  HW  HW  OW  HW  HW  OW  
HW  HW  OW  HW  HW  OW  HW  HW  OW  HW  HW  OW  HW  HW  OW  HW  HW  OW  HW  HW  
OW  HW  HW  OW  HW  HW  OW  HW  HW  OW  HW  HW  OW  HW  HW  OW  HW  HW  OW  HW  
HW  OW  HW  HW  OW  HW  HW  OW  HW  HW  OW  HW  HW  OW  HW  HW  OW  HW  HW  OW  
HW  HW  OW  HW  HW  OW  HW  HW  OW  HW  HW  OW  HW  HW  OW  HW  HW  OW  HW  HW  
OW  HW  HW  OW  HW  HW  OW  HW  HW  OW  HW  HW  OW  HW  HW  OW  HW  HW  OW  HW  
HW  OW  HW  HW  OW  HW  HW  OW  HW  HW  OW  HW  HW  OW  HW  HW  OW  HW  HW  OW  
HW  HW  OW  HW  HW  OW  HW  HW  OW  HW  HW  OW  HW  HW  OW  HW  HW  OW  HW  HW  
OW  HW  HW  OW  HW  HW  OW  HW  HW  OW  HW  HW  OW  HW  HW  OW  HW  HW  OW  HW  
HW  OW  HW  HW  OW  HW  HW  OW  HW  HW  OW  HW  HW  OW  HW  HW  OW  HW  HW  OW  
HW  HW  OW  HW  HW  OW  HW  HW  OW  HW  HW  OW  HW  HW  OW  HW  HW  OW  HW  HW  
OW  HW  HW  OW  HW  HW  OW  HW  HW  OW  HW  HW  OW  HW  HW  OW  HW  HW  OW  HW  
HW  OW  HW  HW  OW  HW  HW  OW  HW  HW  OW  HW  HW  OW  HW  HW  OW  HW  HW  OW  
HW  HW  OW  HW  HW  OW  HW  HW  OW  HW  HW  OW  HW  HW  OW  HW  HW  OW  HW  HW  
OW  HW  HW  OW  HW  HW  OW  HW  HW  OW  HW  HW  OW  HW  HW  OW  HW  HW  OW  HW  
HW  OW  HW  HW  OW  HW  HW  OW  HW  HW  OW  HW  HW  OW  HW  HW  OW  HW  HW  OW  
HW  HW  OW  HW  HW  OW  HW  HW  OW  HW  HW  OW  HW  HW  OW  HW  HW  OW  HW  HW  
OW  HW  HW  OW  HW  HW  OW  HW  HW  OW  HW  HW  OW  HW  HW  OW  HW  HW  OW  HW  
HW  OW  HW  HW  OW  HW  HW  OW  HW  HW  OW  HW  HW  OW  HW  HW  OW  HW  HW  OW  
HW  HW  OW  HW  HW  OW  HW  HW  OW  HW  HW  OW  HW  HW  OW  HW  HW  OW  HW  HW  
OW  HW  HW  OW  HW  HW  OW  HW  HW  OW  HW  HW  OW  HW  HW  OW  HW  HW  OW  HW  
HW  OW  HW  HW  OW  HW  HW  OW  HW  HW  OW  HW  HW  OW  HW  HW  OW  HW  HW  OW  
HW  HW  OW  HW  HW  OW  HW  HW  OW  HW  HW  OW  HW  HW  OW  HW  HW  OW  HW  HW  
OW  HW  HW  OW  HW  HW  OW  HW  HW  OW  HW  HW  OW  HW  HW  OW  HW  HW  OW  HW  
HW  OW  HW  HW  OW  HW  HW  OW  HW  HW  OW  HW  HW  OW  HW  HW  OW  HW  HW  OW  
HW  HW  OW  HW  HW  OW  HW  HW  OW  HW  HW  OW  HW  HW  OW  HW  HW  OW  HW  HW  
OW  HW  HW  OW  HW  HW  OW  HW  HW  OW  HW  HW  OW  HW  HW  OW  HW  HW  OW  HW  
HW  OW  HW  HW  OW  HW  HW  OW  HW  HW  OW  HW  HW  OW  HW  HW  OW  HW  HW  OW  
HW  HW  OW  HW  HW  OW  HW  HW  OW  HW  HW  OW  HW  HW  OW  HW  HW  OW  HW  HW  
OW  HW  HW  OW  HW  HW  OW  HW  HW  OW  HW  HW  OW  HW  HW  OW  HW  HW  OW  HW  
HW  OW  HW  HW  OW  HW  HW  OW  HW  HW  OW  HW  HW  OW  HW  HW  OW  HW  HW  OW  
HW  HW  OW  HW  HW  OW  HW  HW  OW  HW  HW  OW  HW  HW  OW  HW  HW  OW  HW  HW  
OW  HW  HW  OW  HW  HW  OW  HW  HW  OW  HW  HW  OW  HW  HW  OW  HW  HW  OW  HW  
HW  OW  HW  HW  OW  HW  HW  OW  HW  HW  OW  HW  HW  OW  HW  HW  OW  HW  HW  OW  
HW  HW  OW  HW  HW  OW  HW  HW  OW  HW  HW  OW  HW  HW  OW  HW  HW  OW  HW  HW  
OW  HW  HW  OW  HW  HW  OW  HW  HW  OW  HW  HW  OW  HW  HW  OW  HW  HW  OW  HW  
HW  OW  HW  HW  OW  HW  HW  OW  HW  HW  OW  HW  HW  OW  HW  HW  OW  HW  HW  OW  
HW  HW  OW  HW  HW  OW  HW  HW  OW  HW  HW  OW  HW  HW  OW  HW  HW  OW  HW  HW  
OW  HW  HW  OW  HW  HW  OW  HW  HW  OW  HW  HW  OW  HW  HW  OW  HW  HW  OW  HW  
HW  OW  HW  HW  OW  HW  HW  OW  HW  HW  OW  HW  HW  OW  HW  HW  OW  HW  HW  OW  
HW  HW  OW  HW  HW  OW  HW  HW  OW  HW  HW  OW  HW  HW  OW  HW  HW  OW  HW  HW  
OW  HW  HW  OW  HW  HW  OW  HW  HW  OW  HW  HW  OW  HW  HW  OW  HW  HW  OW  HW  
HW  OW  HW  HW  OW  HW  HW  OW  HW  HW  OW  HW  HW  OW  HW  HW  OW  HW  HW  OW  
HW  HW  OW  HW  HW  OW  HW  HW  OW  HW  HW  OW  HW  HW  OW  HW  HW  OW  HW  HW  
OW  HW  HW  OW  HW  HW  OW  HW  HW  OW  HW  HW  OW  HW  HW  OW  HW  HW  OW  HW  
HW  OW  HW  HW  OW  HW  HW  OW  HW  HW  OW  HW  HW  OW  HW  HW  OW  HW  HW  OW  
HW  HW  OW  HW  HW  OW  HW  HW  OW  HW  HW  OW  HW  HW  OW  HW  HW  OW  HW  HW  
OW  HW  HW  OW  HW  HW  OW  HW  HW  OW  HW  HW  OW  HW  HW  OW  HW  HW  OW  HW  
HW  OW  HW  HW  OW  HW  HW  OW  HW  HW  OW  HW  HW  OW  HW  HW  OW  HW  HW  OW  
HW  HW  OW  HW  HW  OW  HW  HW  OW  HW  HW  OW  HW  HW  OW  HW  HW  OW  HW  HW  
OW  HW  HW  OW  HW  HW  OW  HW  HW  OW  HW  HW  OW  HW  HW  OW  HW  HW  OW  HW  
HW  OW  HW  HW  OW  HW  HW  OW  HW  HW  OW  HW  HW  OW  HW  HW  OW  HW  HW  OW  
HW  HW  OW  HW  HW  OW  HW  HW  OW  HW  HW  OW  HW  HW  OW  HW  HW  OW  HW  HW  
OW  HW  HW  OW  HW  HW  OW  HW  HW  OW  HW  HW  OW  HW  HW  OW  HW  HW  OW  HW  
HW  OW  HW  HW  OW  HW  HW  OW  HW  HW  OW  HW  HW  OW  HW  HW  OW  HW  HW  OW  
HW  HW  OW  HW  HW  OW  HW  HW  OW  HW  HW  OW  HW  HW  OW  HW  HW  OW  HW  HW  
OW  HW  HW  OW  HW  HW  OW  HW  HW  OW  HW  HW  OW  HW  HW  OW  HW  HW  OW  HW  
HW  OW  HW  HW  OW  HW  HW  OW  HW  HW  OW  HW  HW  OW  HW  HW  OW  HW  HW  OW  
HW  HW  OW  HW  HW  OW  HW  HW  OW  HW  HW  OW  HW  HW  OW  HW  HW  OW  HW  HW  
OW  HW  HW  OW  HW  HW  OW  HW  HW  OW  HW  HW  OW  HW  HW  OW  HW  HW  OW  HW  
HW  OW  HW  HW  OW  HW  HW  OW  HW  HW  OW  HW  HW  OW  HW  HW  OW  HW  HW  OW  
HW  HW  OW  HW  HW  OW  HW  HW  OW  HW  HW  OW  HW  HW  OW  HW  HW  OW  HW  HW  
OW  HW  HW  OW  HW  HW  OW  HW  HW  OW  HW  HW  OW  HW  HW  OW  HW  HW  OW  HW  
HW  OW  HW  HW  OW  HW  HW  OW  HW  HW  OW  HW  HW  OW  HW  HW  OW  HW  HW  OW  
HW  HW  OW  HW  HW  OW  HW  HW  OW  HW  HW  OW  HW  HW  OW  HW  HW  OW  HW  HW  
OW  HW  HW  OW  HW  HW  OW  HW  HW  OW  HW  HW  OW  HW  HW  OW  HW  HW  OW  HW  
HW  OW  HW  HW  OW  HW  HW  OW  HW  HW  OW  HW  HW  OW  HW  HW  OW  HW  HW  OW  
HW  HW  OW  HW  HW  OW  HW  HW  OW  HW  HW  OW  HW  HW  OW  HW  HW  OW  HW  HW  
OW  HW  HW  OW  HW  HW  OW  HW  HW  OW  HW  HW  OW  HW  HW  OW  HW  HW  OW  HW  
HW  OW  HW  HW  OW  HW  HW  OW  HW  HW  OW  HW  HW  OW  HW  HW  OW  HW  HW  OW  
HW  HW  OW  HW  HW  OW  HW  HW  OW  HW  HW  OW  HW  HW  OW  HW  HW  OW  HW  HW  
OW  HW  HW  OW  HW  HW  OW  HW  HW  OW  HW  HW  OW  HW  HW  OW  HW  HW  OW  HW  
HW  OW  HW  HW  OW  HW  HW  OW  HW  HW  OW  HW  HW  OW  HW  HW  OW  HW  HW  OW  
HW  HW  OW  HW  HW  OW  HW  HW  OW  HW  HW  OW  HW  HW  OW  HW  HW  OW  HW  HW  
OW  HW  HW  OW  HW  HW  OW  HW  HW  OW  HW  HW  OW  HW  HW  OW  HW  HW  OW  HW  
HW  OW  HW  HW  OW  HW  HW  OW  HW  HW  OW  HW  HW  OW  HW  HW  OW  HW  HW  OW  
HW  HW  OW  HW  HW  OW  HW  HW  OW  HW  HW  OW  HW  HW  OW  HW  HW  OW  HW  HW  
OW  HW  HW  OW  HW  HW  OW  HW  HW  OW  HW  HW  OW  HW  HW  OW  HW  HW  OW  HW  
HW  OW  HW  HW  OW  HW  HW  OW  HW  HW  OW  HW  HW  OW  HW  HW  OW  HW  HW  OW  
HW  HW  OW  HW  HW  OW  HW  HW  OW  HW  HW  OW  HW  HW  OW  HW  HW  OW  HW  HW  
OW  HW  HW  OW  HW  HW  OW  HW  HW  OW  HW  HW  OW  HW  HW  OW  HW  HW  OW  HW  
HW  OW  HW  HW  OW  HW  HW  OW  HW  HW  OW  HW  HW  OW  HW  HW  OW  HW  HW  OW  
HW  HW  OW  HW  HW  OW  HW  HW  OW  HW  HW  OW  HW  HW  OW  HW  HW  OW  HW  HW  
OW  HW  HW  OW  HW  HW  OW  HW  HW  OW  HW  HW  OW  HW  HW  OW  HW  HW  OW  HW  
HW  OW  HW  HW  OW  HW  HW  OW  HW  HW  OW  HW  HW  OW  HW  HW  OW  HW  HW  OW  
HW  HW  OW  HW  HW  OW  HW  HW  OW  HW  HW  OW  HW  HW  OW  HW  HW  OW  HW  HW  
OW  HW  HW  OW  HW  HW  OW  HW  HW  OW  HW  HW  OW  HW  HW  OW  HW  HW  OW  HW  
HW  OW  HW  HW  OW  HW  HW  OW  HW  HW  OW  HW  HW  OW  HW  HW  OW  HW  HW  OW  
HW  HW  OW  HW  HW  OW  HW  HW  OW  HW  HW  OW  HW  HW  OW  HW  HW  OW  HW  HW  
OW  HW  HW  OW  HW  HW  OW  HW  HW  OW  HW  HW  OW  HW  HW  OW  HW  HW  OW  HW  
HW  OW  HW  HW  OW  HW  HW  OW  HW  HW  OW  HW  HW  OW  HW  HW  OW  HW  HW  OW  
HW  HW  OW  HW  HW  OW  HW  HW  OW  HW  HW  OW  HW  HW  OW  HW  HW  OW  HW  HW  
OW  HW  HW  OW  HW  HW  OW  HW  HW  OW  HW  HW  OW  HW  HW  OW  HW  HW  OW  HW  
HW  OW  HW  HW  OW  HW  HW  OW  HW  HW  OW  HW  HW  OW  HW  HW  OW  HW  HW  OW  
HW  HW  OW  HW  HW  OW  HW  HW  OW  HW  HW  OW  HW  HW  OW  HW  HW  OW  HW  HW  
OW  HW  HW  OW  HW  HW  OW  HW  HW  OW  HW  HW  OW  HW  HW  OW  HW  HW  OW  HW  
HW  OW  HW  HW  OW  HW  HW  OW  HW  HW  OW  HW  HW  OW  HW  HW  OW  HW  HW  OW  
HW  HW  OW  HW  HW  OW  HW  HW  OW  HW  HW  OW  HW  HW  OW  HW  HW  OW  HW  HW  
OW  HW  HW  OW  HW  HW  OW  HW  HW  OW  HW  HW  OW  HW  HW  OW  HW  HW  OW  HW  
HW  OW  HW  HW  OW  HW  HW  OW  HW  HW  OW  HW  HW  OW  HW  HW  OW  HW  HW  OW  
HW  HW  OW  HW  HW  OW  HW  HW  OW  HW  HW  OW  HW  HW  OW  HW  HW  OW  HW  HW  
OW  HW  HW  OW  HW  HW  OW  HW  HW  OW  HW  HW  OW  HW  HW  OW  HW  HW  OW  HW  
HW  OW  HW  HW  OW  HW  HW  OW  HW  HW  OW  HW  HW  OW  HW  HW  OW  HW  HW  OW  
HW  HW  OW  HW  HW  OW  HW  HW  OW  HW  HW  OW  HW  HW  OW  HW  HW  OW  HW  HW  
OW  HW  HW  OW  HW  HW  OW  HW  HW  OW  HW  HW  OW  HW  HW  OW  HW  HW  OW  HW  
HW  OW  HW  HW  OW  HW  HW  OW  HW  HW  OW  HW  HW  OW  HW  HW  OW  HW  HW  OW  
HW  HW  OW  HW  HW  OW  HW  HW  OW  HW  HW  OW  HW  HW  OW  HW  HW  OW  HW  HW  
OW  HW  HW  OW  HW  HW  OW  HW  HW  OW  HW  HW  OW  HW  HW  OW  HW  HW  OW  HW  
HW  OW  HW  HW  OW  HW  HW  OW  HW  HW  OW  HW  HW  OW  HW  HW  OW  HW  HW  OW  
HW  HW  OW  HW  HW  OW  HW  HW  OW  HW  HW  OW  HW  HW  OW  HW  HW  OW  HW  HW  
OW  HW  HW  OW  HW  HW  OW  HW  HW  OW  HW  HW  OW  HW  HW  OW  HW  HW  OW  HW  
HW  OW  HW  HW  OW  HW  HW  OW  HW  HW  OW  HW  HW  OW  HW  HW  OW  HW  HW  OW  
HW  HW  OW  HW  HW  OW  HW  HW  OW  HW  HW  OW  HW  HW  OW  HW  HW  OW  HW  HW  
OW  HW  HW  OW  HW  HW  OW  HW  HW  OW  HW  HW  OW  HW  HW  OW  HW  HW  OW  HW  
HW  OW  HW  HW  OW  HW  HW  OW  HW  HW  OW  HW  HW  OW  HW  HW  OW  HW  HW  OW  
HW  HW  OW  HW  HW  OW  HW  HW  OW  HW  HW  OW  HW  HW  OW  HW  HW  OW  HW  HW  
OW  HW  HW  OW  HW  HW  OW  HW  HW  OW  HW  HW  OW  HW  HW  OW  HW  HW  OW  HW  
HW  OW  HW  HW  OW  HW  HW  OW  HW  HW  OW  HW  HW  OW  HW  HW  OW  HW  HW  OW  
HW  HW  OW  HW  HW  OW  HW  HW  OW  HW  HW  OW  HW  HW  OW  HW  HW  OW  HW  HW  
OW  HW  HW  OW  HW  HW  OW  HW  HW  OW  HW  HW  OW  HW  HW  OW  HW  HW  OW  HW  
HW  OW  HW  HW  OW  HW  HW  OW  HW  HW  OW  HW  HW  OW  HW  HW  OW  HW  HW  OW  
HW  HW  OW  HW  HW  OW  HW  HW  OW  HW  HW  OW  HW  HW  OW  HW  HW  OW  HW  HW  
OW  HW  HW  OW  HW  HW  OW  HW  HW  OW  HW  HW  OW  HW  HW  OW  HW  HW  OW  HW  
HW  OW  HW  HW  OW  HW  HW  OW  HW  HW  OW  HW  HW  OW  HW  HW  OW  HW  HW  OW  
HW  HW  OW  HW  HW  OW  HW  HW  OW  HW  HW  OW  HW  HW  OW  HW  HW  OW  HW  HW  
OW  HW  HW  OW  HW  HW  OW  HW  HW  OW  HW  HW  OW  HW  HW  OW  HW  HW  OW  HW  
HW  OW  HW  HW  OW  HW  HW  OW  HW  HW  OW  HW  HW  OW  HW  HW  OW  HW  HW  OW  
HW  HW  OW  HW  HW  OW  HW  HW  OW  HW  HW  OW  HW  HW  OW  HW  HW  OW  HW  HW  
OW  HW  HW  OW  HW  HW  OW  HW  HW  OW  HW  HW  OW  HW  HW  OW  HW  HW  OW  HW  
HW  OW  HW  HW  OW  HW  HW  OW  HW  HW  OW  HW  HW  OW  HW  HW  OW  HW  HW  OW  
HW  HW  OW  HW  HW  OW  HW  HW  OW  HW  HW  OW  HW  HW  OW  HW  HW  OW  HW  HW  
OW  HW  HW  OW  HW  HW  OW  HW  HW  OW  HW  HW  OW  HW  HW  OW  HW  HW  OW  HW  
HW  OW  HW  HW  OW  HW  HW  OW  HW  HW  OW  HW  HW  OW  HW  HW  OW  HW  HW  OW  
HW  HW  OW  HW  HW  OW  HW  HW  OW  HW  HW  OW  HW  HW  OW  HW  HW  OW  HW  HW  
OW  HW  HW  OW  HW  HW  OW  HW  HW  OW  HW  HW  OW  HW  HW  OW  HW  HW  OW  HW  
HW  OW  HW  HW  OW  HW  HW  OW  HW  HW  OW  HW  HW  OW  HW  HW  OW  HW  HW  OW  
HW  HW  OW  HW  HW  OW  HW  HW  OW  HW  HW  OW  HW  HW  OW  HW  HW  OW  HW  HW  
OW  HW  HW  OW  HW  HW  OW  HW  HW  OW  HW  HW  OW  HW  HW  OW  HW  HW  OW  HW  
HW  OW  HW  HW  OW  HW  HW  OW  HW  HW  OW  HW  HW  OW  HW  HW  OW  HW  HW  OW  
HW  HW  OW  HW  HW  OW  HW  HW  OW  HW  HW  OW  HW  HW  OW  HW  HW  OW  HW  HW  
OW  HW  HW  OW  HW  HW  OW  HW  HW  OW  HW  HW  OW  HW  HW  OW  HW  HW  OW  HW  
HW  OW  HW  HW  OW  HW  HW  OW  HW  HW  OW  HW  HW  OW  HW  HW  OW  HW  HW  OW  
HW  HW  OW  HW  HW  OW  HW  HW  OW  HW  HW  OW  HW  HW  OW  HW  HW  OW  HW  HW  
OW  HW  HW  OW  HW  HW  OW  HW  HW  OW  HW  HW  OW  HW  HW  OW  HW  HW  OW  HW  
HW  OW  HW  HW  OW  HW  HW  OW  HW  HW  OW  HW  HW  OW  HW  HW  OW  HW  HW  OW  
HW  HW  OW  HW  HW  OW  HW  HW  OW  HW  HW  OW  HW  HW  OW  HW  HW  OW  HW  HW  
OW  HW  HW  OW  HW  HW  OW  HW  HW  OW  HW  HW  OW  HW  HW  OW  HW  HW  OW  HW  
HW  OW  HW  HW  OW  HW  HW  OW  HW  HW  OW  HW  HW  OW  HW  HW  OW  HW  HW  OW  
HW  HW  OW  HW  HW  OW  HW  HW  OW  HW  HW  OW  HW  HW  OW  HW  HW  OW  HW  HW  
OW  HW  HW  OW  HW  HW  OW  HW  HW  OW  HW  HW  OW  HW  HW  OW  HW  HW  OW  HW  
HW  OW  HW  HW  OW  HW  HW  OW  HW  HW  OW  HW  HW  OW  HW  HW  OW  HW  HW  OW  
HW  HW  OW  HW  HW  OW  HW  HW  OW  HW  HW  OW  HW  HW  OW  HW  HW  OW  HW  HW  
OW  HW  HW  OW  HW  HW  OW  HW  HW  OW  HW  HW  OW  HW  HW  OW  HW  HW  OW  HW  
HW  OW  HW  HW  OW  HW  HW  OW  HW  HW  OW  HW  HW  OW  HW  HW  OW  HW  HW  OW  
HW  HW  OW  HW  HW  OW  HW  HW  OW  HW  HW  OW  HW  HW  OW  HW  HW  OW  HW  HW  
OW  HW  HW  OW  HW  HW  OW  HW  HW  OW  HW  HW  OW  HW  HW  OW  HW  HW  OW  HW  
HW  OW  HW  HW  OW  HW  HW  OW  HW  HW  OW  HW  HW  OW  HW  HW  OW  HW  HW  OW  
HW  HW  OW  HW  HW  OW  HW  HW  OW  HW  HW  OW  HW  HW  OW  HW  HW  OW  HW  HW  
OW  HW  HW  OW  HW  HW  OW  HW  HW  OW  HW  HW  OW  HW  HW  OW  HW  HW  OW  HW  
HW  OW  HW  HW  OW  HW  HW  OW  HW  HW  OW  HW  HW  OW  HW  HW  OW  HW  HW  OW  
HW  HW  OW  HW  HW  OW  HW  HW  OW  HW  HW  OW  HW  HW  OW  HW  HW  OW  HW  HW  
OW  HW  HW  OW  HW  HW  OW  HW  HW  OW  HW  HW  OW  HW  HW  OW  HW  HW  OW  HW  
HW  OW  HW  HW  OW  HW  HW  OW  HW  HW  OW  HW  HW  OW  HW  HW  OW  HW  HW  OW  
HW  HW  OW  HW  HW  OW  HW  HW  OW  HW  HW  OW  HW  HW  OW  HW  HW  OW  HW  HW  
OW  HW  HW  OW  HW  HW  OW  HW  HW  OW  HW  HW  OW  HW  HW  OW  HW  HW  OW  HW  
HW  OW  HW  HW  OW  HW  HW  OW  HW  HW  OW  HW  HW  OW  HW  HW  OW  HW  HW  OW  
HW  HW  OW  HW  HW  OW  HW  HW  OW  HW  HW  OW  HW  HW  OW  HW  HW  OW  HW  HW  
OW  HW  HW  OW  HW  HW  OW  HW  HW  OW  HW  HW  OW  HW  HW  OW  HW  HW  OW  HW  
HW  OW  HW  HW  OW  HW  HW  OW  HW  HW  OW  HW  HW  OW  HW  HW  OW  HW  HW  OW  
HW  HW  OW  HW  HW  OW  HW  HW  OW  HW  HW  OW  HW  HW  OW  HW  HW  OW  HW  HW  
OW  HW  HW  OW  HW  HW  OW  HW  HW  OW  HW  HW  OW  HW  HW  OW  HW  HW  OW  HW  
HW  OW  HW  HW  OW  HW  HW  OW  HW  HW  OW  HW  HW  OW  HW  HW  OW  HW  HW  OW  
HW  HW  OW  HW  HW  OW  HW  HW  OW  HW  HW  OW  HW  HW  OW  HW  HW  OW  HW  HW  
OW  HW  HW  OW  HW  HW  OW  HW  HW  OW  HW  HW  OW  HW  HW  OW  HW  HW  OW  HW  
HW  OW  HW  HW  OW  HW  HW  OW  HW  HW  OW  HW  HW  OW  HW  HW  OW  HW  HW  OW  
HW  HW  OW  HW  HW  OW  HW  HW  OW  HW  HW  OW  HW  HW  OW  HW  HW  OW  HW  HW  
OW  HW  HW  OW  HW  HW  OW  HW  HW  OW  HW  HW  OW  HW  HW  OW  HW  HW  OW  HW  
HW  OW  HW  HW  OW  HW  HW  OW  HW  HW  OW  HW  HW  OW  HW  HW  OW  HW  HW  OW  
HW  HW  OW  HW  HW  OW  HW  HW  OW  HW  HW  OW  HW  HW  OW  HW  HW  OW  HW  HW  
OW  HW  HW  OW  HW  HW  OW  HW  HW  OW  HW  HW  OW  HW  HW  OW  HW  HW  OW  HW  
HW  OW  HW  HW  OW  HW  HW  OW  HW  HW  OW  HW  HW  OW  HW  HW  OW  HW  HW  OW  
HW  HW  OW  HW  HW  OW  HW  HW  OW  HW  HW  OW  HW  HW  OW  HW  HW  OW  HW  HW  
OW  HW  HW  OW  HW  HW  OW  HW  HW  OW  HW  HW  OW  HW  HW  OW  HW  HW  OW  HW  
HW  OW  HW  HW  OW  HW  HW  OW  HW  HW  OW  HW  HW  OW  HW  HW  OW  HW  HW  OW  
HW  HW  OW  HW  HW  OW  HW  HW  OW  HW  HW  OW  HW  HW  OW  HW  HW  OW  HW  HW  
OW  HW  HW  OW  HW  HW  OW  HW  HW  OW  HW  HW  OW  HW  HW  OW  HW  HW  OW  HW  
HW  OW  HW  HW  OW  HW  HW  OW  HW  HW  OW  HW  HW  OW  HW  HW  OW  HW  HW  OW  
HW  HW  OW  HW  HW  OW  HW  HW  OW  HW  HW  OW  HW  HW  OW  HW  HW  OW  HW  HW  
OW  HW  HW  OW  HW  HW  OW  HW  HW  OW  HW  HW  OW  HW  HW  OW  HW  HW  OW  HW  
HW  OW  HW  HW  OW  HW  HW  OW  HW  HW  OW  HW  HW  OW  HW  HW  OW  HW  HW  OW  
HW  HW  OW  HW  HW  OW  HW  HW  OW  HW  HW  OW  HW  HW  OW  HW  HW  OW  HW  HW  
OW  HW  HW  OW  HW  HW  OW  HW  HW  OW  HW  HW  OW  HW  HW  OW  HW  HW  OW  HW  
HW  OW  HW  HW  OW  HW  HW  OW  HW  HW  OW  HW  HW  OW  HW  HW  OW  HW  HW  OW  
HW  HW  OW  HW  HW  OW  HW  HW  OW  HW  HW  OW  HW  HW  OW  HW  HW  OW  HW  HW  
OW  HW  HW  OW  HW  HW  OW  HW  HW  OW  HW  HW  OW  HW  HW  OW  HW  HW  OW  HW  
HW  OW  HW  HW  OW  HW  HW  OW  HW  HW  OW  HW  HW  OW  HW  HW  OW  HW  HW  OW  
HW  HW  OW  HW  HW  OW  HW  HW  OW  HW  HW  OW  HW  HW  OW  HW  HW  OW  HW  HW  
OW  HW  HW  OW  HW  HW  OW  HW  HW  OW  HW  HW  OW  HW  HW  OW  HW  HW  OW  HW  
HW  OW  HW  HW  OW  HW  HW  OW  HW  HW  OW  HW  HW  OW  HW  HW  OW  HW  HW  OW  
HW  HW  OW  HW  HW  OW  HW  HW  OW  HW  HW  OW  HW  HW  OW  HW  HW  OW  HW  HW  
OW  HW  HW  OW  HW  HW  OW  HW  HW  OW  HW  HW  OW  HW  HW  OW  HW  HW  OW  HW  
HW  OW  HW  HW  OW  HW  HW  OW  HW  HW  OW  HW  HW  OW  HW  HW  OW  HW  HW  OW  
HW  HW  OW  HW  HW  OW  HW  HW  OW  HW  HW  OW  HW  HW  OW  HW  HW  OW  HW  HW  
OW  HW  HW  OW  HW  HW  OW  HW  HW  OW  HW  HW  OW  HW  HW  OW  HW  HW  OW  HW  
HW  OW  HW  HW  OW  HW  HW  OW  HW  HW  OW  HW  HW  OW  HW  HW  OW  HW  HW  OW  
HW  HW  OW  HW  HW  OW  HW  HW  OW  HW  HW  OW  HW  HW  OW  HW  HW  OW  HW  HW  
OW  HW  HW  OW  HW  HW  OW  HW  HW  OW  HW  HW  OW  HW  HW  OW  HW  HW  OW  HW  
HW  OW  HW  HW  OW  HW  HW  OW  HW  HW  OW  HW  HW  OW  HW  HW  OW  HW  HW  OW  
HW  HW  OW  HW  HW  OW  HW  HW  OW  HW  HW  OW  HW  HW  OW  HW  HW  OW  HW  HW  
OW  HW  HW  OW  HW  HW  OW  HW  HW  OW  HW  HW  OW  HW  HW  OW  HW  HW  OW  HW  
HW  OW  HW  HW  OW  HW  HW  OW  HW  HW  OW  HW  HW  OW  HW  HW  OW  HW  HW  OW  
HW  HW  OW  HW  HW  OW  HW  HW  OW  HW  HW  OW  HW  HW  OW  HW  HW  OW  HW  HW  
OW  HW  HW  OW  HW  HW  OW  HW  HW  OW  HW  HW  OW  HW  HW  OW  HW  HW  OW  HW  
HW  OW  HW  HW  OW  HW  HW  OW  HW  HW  OW  HW  HW  OW  HW  HW  OW  HW  HW  OW  
HW  HW  OW  HW  HW  OW  HW  HW  OW  HW  HW  OW  HW  HW  OW  HW  HW  OW  HW  HW  
OW  HW  HW  OW  HW  HW  OW  HW  HW  OW  HW  HW  OW  HW  HW  OW  HW  HW  OW  HW  
HW  OW  HW  HW  OW  HW  HW  OW  HW  HW  OW  HW  HW  OW  HW  HW  OW  HW  HW  OW  
HW  HW  OW  HW  HW  OW  HW  HW  OW  HW  HW  OW  HW  HW  OW  HW  HW  OW  HW  HW  
OW  HW  HW  OW  HW  HW  OW  HW  HW  OW  HW  HW  OW  HW  HW  OW  HW  HW  OW  HW  
HW  OW  HW  HW  OW  HW  HW  OW  HW  HW  OW  HW  HW  OW  HW  HW  OW  HW  HW  OW  
HW  HW  OW  HW  HW  OW  HW  HW  OW  HW  HW  OW  HW  HW  OW  HW  HW  OW  HW  HW  
OW  HW  HW  OW  HW  HW  OW  HW  HW  OW  HW  HW  OW  HW  HW  OW  HW  HW  OW  HW  
HW  OW  HW  HW  OW  HW  HW  OW  HW  HW  OW  HW  HW  OW  HW  HW  OW  HW  HW  OW  
HW  HW  OW  HW  HW  OW  HW  HW  OW  HW  HW  OW  HW  HW  OW  HW  HW  OW  HW  HW  
OW  HW  HW  OW  HW  HW  OW  HW  HW  OW  HW  HW  OW  HW  HW  OW  HW  HW  OW  HW  
HW  OW  HW  HW  OW  HW  HW  OW  HW  HW  OW  HW  HW  OW  HW  HW  OW  HW  HW  OW  
HW  HW  OW  HW  HW  OW  HW  HW  OW  HW  HW  OW  HW  HW  OW  HW  HW  OW  HW  HW  
OW  HW  HW  OW  HW  HW  OW  HW  HW  OW  HW  HW  OW  HW  HW  OW  HW  HW  OW  HW  
HW  OW  HW  HW  OW  HW  HW  OW  HW  HW  OW  HW  HW  OW  HW  HW  OW  HW  HW  OW  
HW  HW  OW  HW  HW  OW  HW  HW  OW  HW  HW  OW  HW  HW  OW  HW  HW  OW  HW  HW  
OW  HW  HW  OW  HW  HW  OW  HW  HW  OW  HW  HW  OW  HW  HW  OW  HW  HW  OW  HW  
HW  OW  HW  HW  OW  HW  HW  OW  HW  HW  OW  HW  HW  OW  HW  HW  OW  HW  HW  OW  
HW  HW  OW  HW  HW  OW  HW  HW  OW  HW  HW  OW  HW  HW  OW  HW  HW  
%FLAG TREE_CHAIN_CLASSIFICATION                                                 
%FORMAT(20a4)                                                                   
BLA BLA BLA BLA BLA BLA BLA BLA BLA BLA BLA BLA BLA BLA BLA BLA BLA BLA BLA BLA 
BLA BLA BLA BLA BLA BLA BLA BLA BLA BLA BLA BLA BLA BLA BLA BLA BLA BLA BLA BLA 
BLA BLA BLA BLA BLA BLA BLA BLA BLA BLA BLA BLA BLA BLA BLA BLA BLA BLA BLA BLA 
BLA BLA BLA BLA BLA BLA BLA BLA BLA BLA BLA BLA BLA BLA BLA BLA BLA BLA BLA BLA 
BLA BLA BLA BLA BLA BLA BLA BLA BLA BLA BLA BLA BLA BLA BLA BLA BLA BLA BLA BLA 
BLA BLA BLA BLA BLA BLA BLA BLA BLA BLA BLA BLA BLA BLA BLA BLA BLA BLA BLA BLA 
BLA BLA BLA BLA BLA BLA BLA BLA BLA BLA BLA BLA BLA BLA BLA BLA BLA BLA BLA BLA 
BLA BLA BLA BLA BLA BLA BLA BLA BLA BLA BLA BLA BLA BLA BLA BLA BLA BLA BLA BLA 
BLA BLA BLA BLA BLA BLA BLA BLA BLA BLA BLA BLA BLA BLA BLA BLA BLA BLA BLA BLA 
BLA BLA BLA BLA BLA BLA BLA BLA BLA BLA BLA BLA BLA BLA BLA BLA BLA BLA BLA BLA 
BLA BLA BLA BLA BLA BLA BLA BLA BLA BLA BLA BLA BLA BLA BLA BLA BLA BLA BLA BLA 
BLA BLA BLA BLA BLA BLA BLA BLA BLA BLA BLA BLA BLA BLA BLA BLA BLA BLA BLA BLA 
BLA BLA BLA BLA BLA BLA BLA BLA BLA BLA BLA BLA BLA BLA BLA BLA BLA BLA BLA BLA 
BLA BLA BLA BLA BLA BLA BLA BLA BLA BLA BLA BLA BLA BLA BLA BLA BLA BLA BLA BLA 
BLA BLA BLA BLA BLA BLA BLA BLA BLA BLA BLA BLA BLA BLA BLA BLA BLA BLA BLA BLA 
BLA BLA BLA BLA BLA BLA BLA BLA BLA BLA BLA BLA BLA BLA BLA BLA BLA BLA BLA BLA 
BLA BLA BLA BLA BLA BLA BLA BLA BLA BLA BLA BLA BLA BLA BLA BLA BLA BLA BLA BLA 
BLA BLA BLA BLA BLA BLA BLA BLA BLA BLA BLA BLA BLA BLA BLA BLA BLA BLA BLA BLA 
BLA BLA BLA BLA BLA BLA BLA BLA BLA BLA BLA BLA BLA BLA BLA BLA BLA BLA BLA BLA 
BLA BLA BLA BLA BLA BLA BLA BLA BLA BLA BLA BLA BLA BLA BLA BLA BLA BLA BLA BLA 
BLA BLA BLA BLA BLA BLA BLA BLA BLA BLA BLA BLA BLA BLA BLA BLA BLA BLA BLA BLA 
BLA BLA BLA BLA BLA BLA BLA BLA BLA BLA BLA BLA BLA BLA BLA BLA BLA BLA BLA BLA 
BLA BLA BLA BLA BLA BLA BLA BLA BLA BLA BLA BLA BLA BLA BLA BLA BLA BLA BLA BLA 
BLA BLA BLA BLA BLA BLA BLA BLA BLA BLA BLA BLA BLA BLA BLA BLA BLA BLA BLA BLA 
BLA BLA BLA BLA BLA BLA BLA BLA BLA BLA BLA BLA BLA BLA BLA BLA BLA BLA BLA BLA 
BLA BLA BLA BLA BLA BLA BLA BLA BLA BLA BLA BLA BLA BLA BLA BLA BLA BLA BLA BLA 
BLA BLA BLA BLA BLA BLA BLA BLA BLA BLA BLA BLA BLA BLA BLA BLA BLA BLA BLA BLA 
BLA BLA BLA BLA BLA BLA BLA BLA BLA BLA BLA BLA BLA BLA BLA BLA BLA BLA BLA BLA 
BLA BLA BLA BLA BLA BLA BLA BLA BLA BLA BLA BLA BLA BLA BLA BLA BLA BLA BLA BLA 
BLA BLA BLA BLA BLA BLA BLA BLA BLA BLA BLA BLA BLA BLA BLA BLA BLA BLA BLA BLA 
BLA BLA BLA BLA BLA BLA BLA BLA BLA BLA BLA BLA BLA BLA BLA BLA BLA BLA BLA BLA 
BLA BLA BLA BLA BLA BLA BLA BLA BLA BLA BLA BLA BLA BLA BLA BLA BLA BLA BLA BLA 
BLA BLA BLA BLA BLA BLA BLA BLA BLA BLA BLA BLA BLA BLA BLA BLA BLA BLA BLA BLA 
BLA BLA BLA BLA BLA BLA BLA BLA BLA BLA BLA BLA BLA BLA BLA BLA BLA BLA BLA BLA 
BLA BLA BLA BLA BLA BLA BLA BLA BLA BLA BLA BLA BLA BLA BLA BLA BLA BLA BLA BLA 
BLA BLA BLA BLA BLA BLA BLA BLA BLA BLA BLA BLA BLA BLA BLA BLA BLA BLA BLA BLA 
BLA BLA BLA BLA BLA BLA BLA BLA BLA BLA BLA BLA BLA BLA BLA BLA BLA BLA BLA BLA 
BLA BLA BLA BLA BLA BLA BLA BLA BLA BLA BLA BLA BLA BLA BLA BLA BLA BLA BLA BLA 
BLA BLA BLA BLA BLA BLA BLA BLA BLA BLA BLA BLA BLA BLA BLA BLA BLA BLA BLA BLA 
BLA BLA BLA BLA BLA BLA BLA BLA BLA BLA BLA BLA BLA BLA BLA BLA BLA BLA BLA BLA 
BLA BLA BLA BLA BLA BLA BLA BLA BLA BLA BLA BLA BLA BLA BLA BLA BLA BLA BLA BLA 
BLA BLA BLA BLA BLA BLA BLA BLA BLA BLA BLA BLA BLA BLA BLA BLA BLA BLA BLA BLA 
BLA BLA BLA BLA BLA BLA BLA BLA BLA BLA BLA BLA BLA BLA BLA BLA BLA BLA BLA BLA 
BLA BLA BLA BLA BLA BLA BLA BLA BLA BLA BLA BLA BLA BLA BLA BLA BLA BLA BLA BLA 
BLA BLA BLA BLA BLA BLA BLA BLA BLA BLA BLA BLA BLA BLA BLA BLA BLA BLA BLA BLA 
BLA BLA BLA BLA BLA BLA BLA BLA BLA BLA BLA BLA BLA BLA BLA BLA BLA BLA BLA BLA 
BLA BLA BLA BLA BLA BLA BLA BLA BLA BLA BLA BLA BLA BLA BLA BLA BLA BLA BLA BLA 
BLA BLA BLA BLA BLA BLA BLA BLA BLA BLA BLA BLA BLA BLA BLA BLA BLA BLA BLA BLA 
BLA BLA BLA BLA BLA BLA BLA BLA BLA BLA BLA BLA BLA BLA BLA BLA BLA BLA BLA BLA 
BLA BLA BLA BLA BLA BLA BLA BLA BLA BLA BLA BLA BLA BLA BLA BLA BLA BLA BLA BLA 
BLA BLA BLA BLA BLA BLA BLA BLA BLA BLA BLA BLA BLA BLA BLA BLA BLA BLA BLA BLA 
BLA BLA BLA BLA BLA BLA BLA BLA BLA BLA BLA BLA BLA BLA BLA BLA BLA BLA BLA BLA 
BLA BLA BLA BLA BLA BLA BLA BLA BLA BLA BLA BLA BLA BLA BLA BLA BLA BLA BLA BLA 
BLA BLA BLA BLA BLA BLA BLA BLA BLA BLA BLA BLA BLA BLA BLA BLA BLA BLA BLA BLA 
BLA BLA BLA BLA BLA BLA BLA BLA BLA BLA BLA BLA BLA BLA BLA BLA BLA BLA BLA BLA 
BLA BLA BLA BLA BLA BLA BLA BLA BLA BLA BLA BLA BLA BLA BLA BLA BLA BLA BLA BLA 
BLA BLA BLA BLA BLA BLA BLA BLA BLA BLA BLA BLA BLA BLA BLA BLA BLA BLA BLA BLA 
BLA BLA BLA BLA BLA BLA BLA BLA BLA BLA BLA BLA BLA BLA BLA BLA BLA BLA BLA BLA 
BLA BLA BLA BLA BLA BLA BLA BLA BLA BLA BLA BLA BLA BLA BLA BLA BLA BLA BLA BLA 
BLA BLA BLA BLA BLA BLA BLA BLA BLA BLA BLA BLA BLA BLA BLA BLA BLA BLA BLA BLA 
BLA BLA BLA BLA BLA BLA BLA BLA BLA BLA BLA BLA BLA BLA BLA BLA BLA BLA BLA BLA 
BLA BLA BLA BLA BLA BLA BLA BLA BLA BLA BLA BLA BLA BLA BLA BLA BLA BLA BLA BLA 
BLA BLA BLA BLA BLA BLA BLA BLA BLA BLA BLA BLA BLA BLA BLA BLA BLA BLA BLA BLA 
BLA BLA BLA BLA BLA BLA BLA BLA BLA BLA BLA BLA BLA BLA BLA BLA BLA BLA BLA BLA 
BLA BLA BLA BLA BLA BLA BLA BLA BLA BLA BLA BLA BLA BLA BLA BLA BLA BLA BLA BLA 
BLA BLA BLA BLA BLA BLA BLA BLA BLA BLA BLA BLA BLA BLA BLA BLA BLA BLA BLA BLA 
BLA BLA BLA BLA BLA BLA BLA BLA BLA BLA BLA BLA BLA BLA BLA BLA BLA BLA BLA BLA 
BLA BLA BLA BLA BLA BLA BLA BLA BLA BLA BLA BLA BLA BLA BLA BLA BLA BLA BLA BLA 
BLA BLA BLA BLA BLA BLA BLA BLA BLA BLA BLA BLA BLA BLA BLA BLA BLA BLA BLA BLA 
BLA BLA BLA BLA BLA BLA BLA BLA BLA BLA BLA BLA BLA BLA BLA BLA BLA BLA BLA BLA 
BLA BLA BLA BLA BLA BLA BLA BLA BLA BLA BLA BLA BLA BLA BLA BLA BLA BLA BLA BLA 
BLA BLA BLA BLA BLA BLA BLA BLA BLA BLA BLA BLA BLA BLA BLA BLA BLA BLA BLA BLA 
BLA BLA BLA BLA BLA BLA BLA BLA BLA BLA BLA BLA BLA BLA BLA BLA BLA BLA BLA BLA 
BLA BLA BLA BLA BLA BLA BLA BLA BLA BLA BLA BLA BLA BLA BLA BLA BLA BLA BLA BLA 
BLA BLA BLA BLA BLA BLA BLA BLA BLA BLA BLA BLA BLA BLA BLA BLA BLA BLA BLA BLA 
BLA BLA BLA BLA BLA BLA BLA BLA BLA BLA BLA BLA BLA BLA BLA BLA BLA BLA BLA BLA 
BLA BLA BLA BLA BLA BLA BLA BLA BLA BLA BLA BLA BLA BLA BLA BLA BLA BLA BLA BLA 
BLA BLA BLA BLA BLA BLA BLA BLA BLA BLA BLA BLA BLA BLA BLA BLA BLA BLA BLA BLA 
BLA BLA BLA BLA BLA BLA BLA BLA BLA BLA BLA BLA BLA BLA BLA BLA BLA BLA BLA BLA 
BLA BLA BLA BLA BLA BLA BLA BLA BLA BLA BLA BLA BLA BLA BLA BLA BLA BLA BLA BLA 
BLA BLA BLA BLA BLA BLA BLA BLA BLA BLA BLA BLA BLA BLA BLA BLA BLA BLA BLA BLA 
BLA BLA BLA BLA BLA BLA BLA BLA BLA BLA BLA BLA BLA BLA BLA BLA BLA BLA BLA BLA 
BLA BLA BLA BLA BLA BLA BLA BLA BLA BLA BLA BLA BLA BLA BLA BLA BLA BLA BLA BLA 
BLA BLA BLA BLA BLA BLA BLA BLA BLA BLA BLA BLA BLA BLA BLA BLA BLA BLA BLA BLA 
BLA BLA BLA BLA BLA BLA BLA BLA BLA BLA BLA BLA BLA BLA BLA BLA BLA BLA BLA BLA 
BLA BLA BLA BLA BLA BLA BLA BLA BLA BLA BLA BLA BLA BLA BLA BLA BLA BLA BLA BLA 
BLA BLA BLA BLA BLA BLA BLA BLA BLA BLA BLA BLA BLA BLA BLA BLA BLA BLA BLA BLA 
BLA BLA BLA BLA BLA BLA BLA BLA BLA BLA BLA BLA BLA BLA BLA BLA BLA BLA BLA BLA 
BLA BLA BLA BLA BLA BLA BLA BLA BLA BLA BLA BLA BLA BLA BLA BLA BLA BLA BLA BLA 
BLA BLA BLA BLA BLA BLA BLA BLA BLA BLA BLA BLA BLA BLA BLA BLA BLA BLA BLA BLA 
BLA BLA BLA BLA BLA BLA BLA BLA BLA BLA BLA BLA BLA BLA BLA BLA BLA BLA BLA BLA 
BLA BLA BLA BLA BLA BLA BLA BLA BLA BLA BLA BLA BLA BLA BLA BLA BLA BLA BLA BLA 
BLA BLA BLA BLA BLA BLA BLA BLA BLA BLA BLA BLA BLA BLA BLA BLA BLA BLA BLA BLA 
BLA BLA BLA BLA BLA BLA BLA BLA BLA BLA BLA BLA BLA BLA BLA BLA BLA BLA BLA BLA 
BLA BLA BLA BLA BLA BLA BLA BLA BLA BLA BLA BLA BLA BLA BLA BLA BLA BLA BLA BLA 
BLA BLA BLA BLA BLA BLA BLA BLA BLA BLA BLA BLA BLA BLA BLA BLA BLA BLA BLA BLA 
BLA BLA BLA BLA BLA BLA BLA BLA BLA BLA BLA BLA BLA BLA BLA BLA BLA BLA BLA BLA 
BLA BLA BLA BLA BLA BLA BLA BLA BLA BLA BLA BLA BLA BLA BLA BLA BLA BLA BLA BLA 
BLA BLA BLA BLA BLA BLA BLA BLA BLA BLA BLA BLA BLA BLA BLA BLA BLA BLA BLA BLA 
BLA BLA BLA BLA BLA BLA BLA BLA BLA BLA BLA BLA BLA BLA BLA BLA BLA BLA BLA BLA 
BLA BLA BLA BLA BLA BLA BLA BLA BLA BLA BLA BLA BLA BLA BLA BLA BLA BLA BLA BLA 
BLA BLA BLA BLA BLA BLA BLA BLA BLA BLA BLA BLA BLA BLA BLA BLA BLA BLA BLA BLA 
BLA BLA BLA BLA BLA BLA BLA BLA BLA BLA BLA BLA BLA BLA BLA BLA BLA BLA BLA BLA 
BLA BLA BLA BLA BLA BLA BLA BLA BLA BLA BLA BLA BLA BLA BLA BLA BLA BLA BLA BLA 
BLA BLA BLA BLA BLA BLA BLA BLA BLA BLA BLA BLA BLA BLA BLA BLA BLA BLA BLA BLA 
BLA BLA BLA BLA BLA BLA BLA BLA BLA BLA BLA BLA BLA BLA BLA BLA BLA BLA BLA BLA 
BLA BLA BLA BLA BLA BLA BLA BLA BLA BLA BLA BLA BLA BLA BLA BLA BLA BLA BLA BLA 
BLA BLA BLA BLA BLA BLA BLA BLA BLA BLA BLA BLA BLA BLA BLA BLA BLA BLA BLA BLA 
BLA BLA BLA BLA BLA BLA BLA BLA BLA BLA BLA BLA BLA BLA BLA BLA BLA BLA BLA BLA 
BLA BLA BLA BLA BLA BLA BLA BLA BLA BLA BLA BLA BLA BLA BLA BLA BLA BLA BLA BLA 
BLA BLA BLA BLA BLA BLA BLA BLA BLA BLA BLA BLA BLA BLA BLA BLA BLA BLA BLA BLA 
BLA BLA BLA BLA BLA BLA BLA BLA BLA BLA BLA BLA BLA BLA BLA BLA BLA BLA BLA BLA 
BLA BLA BLA BLA BLA BLA BLA BLA BLA BLA BLA BLA BLA BLA BLA BLA BLA BLA BLA BLA 
BLA BLA BLA BLA BLA BLA BLA BLA BLA BLA BLA BLA BLA BLA BLA BLA BLA BLA BLA BLA 
BLA BLA BLA BLA BLA BLA BLA BLA BLA BLA BLA BLA BLA BLA BLA BLA BLA BLA BLA BLA 
BLA BLA BLA BLA BLA BLA BLA BLA BLA BLA BLA BLA BLA BLA BLA BLA BLA BLA BLA BLA 
BLA BLA BLA BLA BLA BLA BLA BLA BLA BLA BLA BLA BLA BLA BLA BLA BLA BLA BLA BLA 
BLA BLA BLA BLA BLA BLA BLA BLA BLA BLA BLA BLA BLA BLA BLA BLA BLA BLA BLA BLA 
BLA BLA BLA BLA BLA BLA BLA BLA BLA BLA BLA BLA BLA BLA BLA BLA BLA BLA BLA BLA 
BLA BLA BLA BLA BLA BLA BLA BLA BLA BLA BLA BLA BLA BLA BLA BLA BLA BLA BLA BLA 
BLA BLA BLA BLA BLA BLA BLA BLA BLA BLA BLA BLA BLA BLA BLA BLA BLA BLA BLA BLA 
BLA BLA BLA BLA BLA BLA BLA BLA BLA BLA BLA BLA BLA BLA BLA BLA BLA BLA BLA BLA 
BLA BLA BLA BLA BLA BLA BLA BLA BLA BLA BLA BLA BLA BLA BLA BLA BLA BLA BLA BLA 
BLA BLA BLA BLA BLA BLA BLA BLA BLA BLA BLA BLA BLA BLA BLA BLA BLA BLA BLA BLA 
BLA BLA BLA BLA BLA BLA BLA BLA BLA BLA BLA BLA BLA BLA BLA BLA BLA BLA BLA BLA 
BLA BLA BLA BLA BLA BLA BLA BLA BLA BLA BLA BLA BLA BLA BLA BLA BLA BLA BLA BLA 
BLA BLA BLA BLA BLA BLA BLA BLA BLA BLA BLA BLA BLA BLA BLA BLA BLA BLA BLA BLA 
BLA BLA BLA BLA BLA BLA BLA BLA BLA BLA BLA BLA BLA BLA BLA BLA BLA BLA BLA BLA 
BLA BLA BLA BLA BLA BLA BLA BLA BLA BLA BLA BLA BLA BLA BLA BLA BLA BLA BLA BLA 
BLA BLA BLA BLA BLA BLA BLA BLA BLA BLA BLA BLA BLA BLA BLA BLA BLA BLA BLA BLA 
BLA BLA BLA BLA BLA BLA BLA BLA BLA BLA BLA BLA BLA BLA BLA BLA BLA BLA BLA BLA 
BLA BLA BLA BLA BLA BLA BLA BLA BLA BLA BLA BLA BLA BLA BLA BLA BLA BLA BLA BLA 
BLA BLA BLA BLA BLA BLA BLA BLA BLA BLA BLA BLA BLA BLA BLA BLA BLA BLA BLA BLA 
BLA BLA BLA BLA BLA BLA BLA BLA BLA BLA BLA BLA BLA BLA BLA BLA BLA BLA BLA BLA 
BLA BLA BLA BLA BLA BLA BLA BLA BLA BLA BLA BLA BLA BLA BLA BLA BLA BLA BLA BLA 
BLA BLA BLA BLA BLA BLA BLA BLA BLA BLA BLA BLA BLA BLA BLA BLA BLA BLA BLA BLA 
BLA BLA BLA BLA BLA BLA BLA BLA BLA BLA BLA BLA BLA BLA BLA BLA BLA BLA BLA BLA 
BLA BLA BLA BLA BLA BLA BLA BLA BLA BLA BLA BLA BLA BLA BLA BLA BLA BLA BLA BLA 
BLA BLA BLA BLA BLA BLA BLA BLA BLA BLA BLA BLA BLA BLA BLA BLA BLA BLA BLA BLA 
BLA BLA BLA BLA BLA BLA BLA BLA BLA BLA BLA BLA BLA BLA BLA BLA BLA BLA BLA BLA 
BLA BLA BLA BLA BLA BLA BLA BLA BLA BLA BLA BLA BLA BLA BLA BLA BLA BLA BLA BLA 
BLA BLA BLA BLA BLA BLA BLA BLA BLA BLA BLA BLA BLA BLA BLA BLA BLA BLA BLA BLA 
BLA BLA BLA BLA BLA BLA BLA BLA BLA BLA BLA BLA BLA BLA BLA BLA BLA BLA BLA BLA 
BLA BLA BLA BLA BLA BLA BLA BLA BLA BLA BLA BLA BLA BLA BLA BLA BLA BLA BLA BLA 
BLA BLA BLA BLA BLA BLA BLA BLA BLA BLA BLA BLA BLA BLA BLA BLA BLA BLA BLA BLA 
BLA BLA BLA BLA BLA BLA BLA BLA BLA BLA BLA BLA BLA BLA BLA BLA BLA BLA BLA BLA 
BLA BLA BLA BLA BLA BLA BLA BLA BLA BLA BLA BLA BLA BLA BLA BLA BLA BLA BLA BLA 
BLA BLA BLA BLA BLA BLA BLA BLA BLA BLA BLA BLA BLA BLA BLA BLA BLA BLA BLA BLA 
BLA BLA BLA BLA BLA BLA BLA BLA BLA BLA BLA BLA BLA BLA BLA BLA BLA BLA BLA BLA 
BLA BLA BLA BLA BLA BLA BLA BLA BLA BLA BLA BLA BLA BLA BLA BLA BLA BLA BLA BLA 
BLA BLA BLA BLA BLA BLA BLA BLA BLA BLA BLA BLA BLA BLA BLA BLA BLA BLA BLA BLA 
BLA BLA BLA BLA BLA BLA BLA BLA BLA BLA BLA BLA BLA BLA BLA BLA BLA BLA BLA BLA 
BLA BLA BLA BLA BLA BLA BLA BLA BLA BLA BLA BLA BLA BLA BLA BLA BLA BLA BLA BLA 
BLA BLA BLA BLA BLA BLA BLA BLA BLA BLA BLA BLA BLA BLA BLA BLA BLA BLA BLA BLA 
BLA BLA BLA BLA BLA BLA BLA BLA BLA BLA BLA BLA BLA BLA BLA BLA BLA BLA BLA BLA 
BLA BLA BLA BLA BLA BLA BLA BLA BLA BLA BLA BLA BLA BLA BLA BLA BLA BLA BLA BLA 
BLA BLA BLA BLA BLA BLA BLA BLA BLA BLA BLA BLA BLA BLA BLA BLA BLA BLA BLA BLA 
BLA BLA BLA BLA BLA BLA BLA BLA BLA BLA BLA BLA BLA BLA BLA BLA BLA BLA BLA BLA 
BLA BLA BLA BLA BLA BLA BLA BLA BLA BLA BLA BLA BLA BLA BLA BLA BLA BLA BLA BLA 
BLA BLA BLA BLA BLA BLA BLA BLA BLA BLA BLA BLA BLA BLA BLA BLA BLA BLA BLA BLA 
BLA BLA BLA BLA BLA BLA BLA BLA BLA BLA BLA BLA BLA BLA BLA BLA BLA BLA BLA BLA 
BLA BLA BLA BLA BLA BLA BLA BLA BLA BLA BLA BLA BLA BLA BLA BLA BLA BLA BLA BLA 
BLA BLA BLA BLA BLA BLA BLA BLA BLA BLA BLA BLA BLA BLA BLA BLA BLA BLA BLA BLA 
BLA BLA BLA BLA BLA BLA BLA BLA BLA BLA BLA BLA BLA BLA BLA BLA BLA BLA BLA BLA 
BLA BLA BLA BLA BLA BLA BLA BLA BLA BLA BLA BLA BLA BLA BLA BLA BLA BLA BLA BLA 
BLA BLA BLA BLA BLA BLA BLA BLA BLA BLA BLA BLA BLA BLA BLA BLA BLA BLA BLA BLA 
BLA BLA BLA BLA BLA BLA BLA BLA BLA BLA BLA BLA BLA BLA BLA BLA BLA BLA BLA BLA 
BLA BLA BLA BLA BLA BLA BLA BLA BLA BLA BLA BLA BLA BLA BLA BLA BLA BLA BLA BLA 
BLA BLA BLA BLA BLA BLA BLA BLA BLA BLA BLA BLA BLA BLA BLA BLA BLA BLA BLA BLA 
BLA BLA BLA BLA BLA BLA BLA BLA BLA BLA BLA BLA BLA BLA BLA BLA BLA BLA BLA BLA 
BLA BLA BLA BLA BLA BLA BLA BLA BLA BLA BLA BLA BLA BLA BLA BLA BLA BLA BLA BLA 
BLA BLA BLA BLA BLA BLA BLA BLA BLA BLA BLA BLA BLA BLA BLA BLA BLA BLA BLA BLA 
BLA BLA BLA BLA BLA BLA BLA BLA BLA BLA BLA BLA BLA BLA BLA BLA BLA BLA BLA BLA 
BLA BLA BLA BLA BLA BLA BLA BLA BLA BLA BLA BLA BLA BLA BLA BLA BLA BLA BLA BLA 
BLA BLA BLA BLA BLA BLA BLA BLA BLA BLA BLA BLA BLA BLA BLA BLA BLA BLA BLA BLA 
BLA BLA BLA BLA BLA BLA BLA BLA BLA BLA BLA BLA BLA BLA BLA BLA BLA BLA BLA BLA 
BLA BLA BLA BLA BLA BLA BLA BLA BLA BLA BLA BLA BLA BLA BLA BLA BLA BLA BLA BLA 
BLA BLA BLA BLA BLA BLA BLA BLA BLA BLA BLA BLA BLA BLA BLA BLA BLA BLA BLA BLA 
BLA BLA BLA BLA BLA BLA BLA BLA BLA BLA BLA BLA BLA BLA BLA BLA BLA BLA BLA BLA 
BLA BLA BLA BLA BLA BLA BLA BLA BLA BLA BLA BLA BLA BLA BLA BLA BLA BLA BLA BLA 
BLA BLA BLA BLA BLA BLA BLA BLA BLA BLA BLA BLA BLA BLA BLA BLA BLA BLA BLA BLA 
BLA BLA BLA BLA BLA BLA BLA BLA BLA BLA BLA BLA BLA BLA BLA BLA BLA BLA BLA BLA 
BLA BLA BLA BLA BLA BLA BLA BLA BLA BLA BLA BLA BLA BLA BLA BLA BLA BLA BLA BLA 
BLA BLA BLA BLA BLA BLA BLA BLA BLA BLA BLA BLA BLA BLA BLA BLA BLA BLA BLA BLA 
BLA BLA BLA BLA BLA BLA BLA BLA BLA BLA BLA BLA BLA BLA BLA BLA BLA BLA BLA BLA 
BLA BLA BLA BLA BLA BLA BLA BLA BLA BLA BLA BLA BLA BLA BLA BLA BLA BLA BLA BLA 
BLA BLA BLA BLA BLA BLA BLA BLA BLA BLA BLA BLA BLA BLA BLA BLA BLA BLA BLA BLA 
BLA BLA BLA BLA BLA BLA BLA BLA BLA BLA BLA BLA BLA BLA BLA BLA BLA BLA BLA BLA 
BLA BLA BLA BLA BLA BLA BLA BLA BLA BLA BLA BLA BLA BLA BLA BLA BLA BLA BLA BLA 
BLA BLA BLA BLA BLA BLA BLA BLA BLA BLA BLA BLA BLA BLA BLA BLA BLA BLA BLA BLA 
BLA BLA BLA BLA BLA BLA BLA BLA BLA BLA BLA BLA BLA BLA BLA BLA BLA BLA BLA BLA 
BLA BLA BLA BLA BLA BLA BLA BLA BLA BLA BLA BLA BLA BLA BLA BLA BLA BLA BLA BLA 
BLA BLA BLA BLA BLA BLA BLA BLA BLA BLA BLA BLA BLA BLA BLA BLA BLA BLA BLA BLA 
BLA BLA BLA BLA BLA BLA BLA BLA BLA BLA BLA BLA BLA BLA BLA BLA BLA BLA BLA BLA 
BLA BLA BLA BLA BLA BLA BLA BLA BLA BLA BLA BLA BLA BLA BLA BLA BLA BLA BLA BLA 
BLA BLA BLA BLA BLA BLA BLA BLA BLA BLA BLA BLA BLA BLA BLA BLA BLA BLA BLA BLA 
BLA BLA BLA BLA BLA BLA BLA BLA BLA BLA BLA BLA BLA BLA BLA BLA BLA BLA BLA BLA 
BLA BLA BLA BLA BLA BLA BLA BLA BLA BLA BLA BLA BLA BLA BLA BLA BLA BLA BLA BLA 
BLA BLA BLA BLA BLA BLA BLA BLA BLA BLA BLA BLA BLA BLA BLA BLA BLA BLA BLA BLA 
BLA BLA BLA BLA BLA BLA BLA BLA BLA BLA BLA BLA BLA BLA BLA BLA BLA BLA BLA BLA 
BLA BLA BLA BLA BLA BLA BLA BLA BLA BLA BLA BLA BLA BLA BLA BLA BLA BLA BLA BLA 
BLA BLA BLA BLA BLA BLA BLA BLA BLA BLA BLA BLA BLA BLA BLA BLA BLA BLA BLA BLA 
BLA BLA BLA BLA BLA BLA BLA BLA BLA BLA BLA BLA BLA BLA BLA BLA BLA BLA BLA BLA 
BLA BLA BLA BLA BLA BLA BLA BLA BLA BLA BLA BLA BLA BLA BLA BLA BLA BLA BLA BLA 
BLA BLA BLA BLA BLA BLA BLA BLA BLA BLA BLA BLA BLA BLA BLA BLA BLA BLA BLA BLA 
BLA BLA BLA BLA BLA BLA BLA BLA BLA BLA BLA BLA BLA BLA BLA BLA BLA BLA BLA BLA 
BLA BLA BLA BLA BLA BLA BLA BLA BLA BLA BLA BLA BLA BLA BLA BLA BLA BLA BLA BLA 
BLA BLA BLA BLA BLA BLA BLA BLA BLA BLA BLA BLA BLA BLA BLA BLA BLA BLA BLA BLA 
BLA BLA BLA BLA BLA BLA BLA BLA BLA BLA BLA BLA BLA BLA BLA BLA BLA BLA BLA BLA 
BLA BLA BLA BLA BLA BLA BLA BLA BLA BLA BLA BLA BLA BLA BLA BLA BLA BLA BLA BLA 
BLA BLA BLA BLA BLA BLA BLA BLA BLA BLA BLA BLA BLA BLA BLA BLA BLA BLA BLA BLA 
BLA BLA BLA BLA BLA BLA BLA BLA BLA BLA BLA BLA BLA BLA BLA BLA BLA BLA BLA BLA 
BLA BLA BLA BLA BLA BLA BLA BLA BLA BLA BLA BLA BLA BLA BLA BLA BLA BLA BLA BLA 
BLA BLA BLA BLA BLA BLA BLA BLA BLA BLA BLA BLA BLA BLA BLA BLA BLA BLA BLA BLA 
BLA BLA BLA BLA BLA BLA BLA BLA BLA BLA BLA BLA BLA BLA BLA BLA BLA BLA BLA BLA 
BLA BLA BLA BLA BLA BLA BLA BLA BLA BLA BLA BLA BLA BLA BLA BLA BLA BLA BLA BLA 
BLA BLA BLA BLA BLA BLA BLA BLA BLA BLA BLA BLA BLA BLA BLA BLA BLA BLA BLA BLA 
BLA BLA BLA BLA BLA BLA BLA BLA BLA BLA BLA BLA BLA BLA BLA BLA BLA BLA BLA BLA 
BLA BLA BLA BLA BLA BLA BLA BLA BLA BLA BLA BLA BLA BLA BLA BLA BLA BLA BLA BLA 
BLA BLA BLA BLA BLA BLA BLA BLA BLA BLA BLA BLA BLA BLA BLA BLA BLA BLA BLA BLA 
BLA BLA BLA BLA BLA BLA BLA BLA BLA BLA BLA BLA BLA BLA BLA BLA BLA BLA BLA BLA 
BLA BLA BLA BLA BLA BLA BLA BLA BLA BLA BLA BLA BLA BLA BLA BLA BLA BLA BLA BLA 
BLA BLA BLA BLA BLA BLA BLA BLA BLA BLA BLA BLA BLA BLA BLA BLA BLA BLA BLA BLA 
BLA BLA BLA BLA BLA BLA BLA BLA BLA BLA BLA BLA BLA BLA BLA BLA BLA BLA BLA BLA 
BLA BLA BLA BLA BLA BLA BLA BLA BLA BLA BLA BLA BLA BLA BLA BLA BLA BLA BLA BLA 
BLA BLA BLA BLA BLA BLA BLA BLA BLA BLA BLA BLA BLA BLA BLA BLA BLA BLA BLA BLA 
BLA BLA BLA BLA BLA BLA BLA BLA BLA BLA BLA BLA BLA BLA BLA BLA BLA BLA BLA BLA 
BLA BLA BLA BLA BLA BLA BLA BLA BLA BLA BLA BLA BLA BLA BLA BLA BLA BLA BLA BLA 
BLA BLA BLA BLA BLA BLA BLA BLA BLA BLA BLA BLA BLA BLA BLA BLA BLA BLA BLA BLA 
BLA BLA BLA BLA BLA BLA BLA BLA BLA BLA BLA BLA BLA BLA BLA BLA BLA BLA BLA BLA 
BLA BLA BLA BLA BLA BLA BLA BLA BLA BLA BLA BLA BLA BLA BLA BLA BLA BLA BLA BLA 
BLA BLA BLA BLA BLA BLA BLA BLA BLA BLA BLA BLA BLA BLA BLA BLA BLA BLA BLA BLA 
BLA BLA BLA BLA BLA BLA BLA BLA BLA BLA BLA BLA BLA BLA BLA BLA BLA BLA BLA BLA 
BLA BLA BLA BLA BLA BLA BLA BLA BLA BLA BLA BLA BLA BLA BLA BLA BLA BLA BLA BLA 
BLA BLA BLA BLA BLA BLA BLA BLA BLA BLA BLA BLA BLA BLA BLA BLA BLA BLA BLA BLA 
BLA BLA BLA BLA BLA BLA BLA BLA BLA BLA BLA BLA BLA BLA BLA BLA BLA BLA BLA BLA 
BLA BLA BLA BLA BLA BLA BLA BLA BLA BLA BLA BLA BLA BLA BLA BLA BLA BLA BLA BLA 
BLA BLA BLA BLA BLA BLA BLA BLA BLA BLA BLA BLA BLA BLA BLA BLA BLA BLA BLA BLA 
BLA BLA BLA BLA BLA BLA BLA BLA BLA BLA BLA BLA BLA BLA BLA BLA BLA BLA BLA BLA 
BLA BLA BLA BLA BLA BLA BLA BLA BLA BLA BLA BLA BLA BLA BLA BLA BLA BLA BLA BLA 
BLA BLA BLA BLA BLA BLA BLA BLA BLA BLA BLA BLA BLA BLA BLA BLA BLA BLA BLA BLA 
BLA BLA BLA BLA BLA BLA BLA BLA BLA BLA BLA BLA BLA BLA BLA BLA BLA BLA BLA BLA 
BLA BLA BLA BLA BLA BLA BLA BLA BLA BLA BLA BLA BLA BLA BLA BLA BLA BLA BLA BLA 
BLA BLA BLA BLA BLA BLA BLA BLA BLA BLA BLA BLA BLA BLA BLA BLA BLA BLA BLA BLA 
BLA BLA BLA BLA BLA BLA BLA BLA BLA BLA BLA BLA BLA BLA BLA BLA BLA BLA BLA BLA 
BLA BLA BLA BLA BLA BLA BLA BLA BLA BLA BLA BLA BLA BLA BLA BLA BLA BLA BLA BLA 
BLA BLA BLA BLA BLA BLA BLA BLA BLA BLA BLA BLA BLA BLA BLA BLA BLA BLA BLA BLA 
BLA BLA BLA BLA BLA BLA BLA BLA BLA BLA BLA BLA BLA BLA BLA BLA BLA BLA BLA BLA 
BLA BLA BLA BLA BLA BLA BLA BLA BLA BLA BLA BLA BLA BLA BLA BLA BLA BLA BLA BLA 
BLA BLA BLA BLA BLA BLA BLA BLA BLA BLA BLA BLA BLA BLA BLA BLA BLA BLA BLA BLA 
BLA BLA BLA BLA BLA BLA BLA BLA BLA BLA BLA BLA BLA BLA BLA BLA BLA BLA BLA BLA 
BLA BLA BLA BLA BLA BLA BLA BLA BLA BLA BLA BLA BLA BLA BLA BLA BLA BLA BLA BLA 
BLA BLA BLA BLA BLA BLA BLA BLA BLA BLA BLA BLA BLA BLA BLA BLA BLA BLA BLA BLA 
BLA BLA BLA BLA BLA BLA BLA BLA BLA BLA BLA BLA BLA BLA BLA BLA BLA BLA BLA BLA 
BLA BLA BLA BLA BLA BLA BLA BLA BLA BLA BLA BLA BLA BLA BLA BLA BLA BLA BLA BLA 
BLA BLA BLA BLA BLA BLA BLA BLA BLA BLA BLA BLA BLA BLA BLA BLA BLA BLA BLA BLA 
BLA BLA BLA BLA BLA BLA BLA BLA BLA BLA BLA BLA BLA BLA BLA BLA BLA BLA BLA BLA 
BLA BLA BLA BLA BLA BLA BLA BLA BLA BLA BLA BLA BLA BLA BLA BLA BLA BLA BLA BLA 
BLA BLA BLA BLA BLA BLA BLA BLA BLA BLA BLA BLA BLA BLA BLA BLA BLA BLA BLA BLA 
BLA BLA BLA BLA BLA BLA BLA BLA BLA BLA BLA BLA BLA BLA BLA BLA BLA BLA BLA BLA 
BLA BLA BLA BLA BLA BLA BLA BLA BLA BLA BLA BLA BLA BLA BLA BLA BLA BLA BLA BLA 
BLA BLA BLA BLA BLA BLA BLA BLA BLA BLA BLA BLA BLA BLA BLA BLA BLA BLA BLA BLA 
BLA BLA BLA BLA BLA BLA BLA BLA BLA BLA BLA BLA BLA BLA BLA BLA BLA BLA BLA BLA 
BLA BLA BLA BLA BLA BLA BLA BLA BLA BLA BLA BLA BLA BLA BLA BLA BLA BLA BLA BLA 
BLA BLA BLA BLA BLA BLA BLA BLA BLA BLA BLA BLA BLA BLA BLA BLA BLA BLA BLA BLA 
BLA BLA BLA BLA BLA BLA BLA BLA BLA BLA BLA BLA BLA BLA BLA BLA BLA BLA BLA BLA 
BLA BLA BLA BLA BLA BLA BLA BLA BLA BLA BLA BLA BLA BLA BLA BLA BLA BLA BLA BLA 
BLA BLA BLA BLA BLA BLA BLA BLA BLA BLA BLA BLA BLA BLA BLA BLA BLA BLA BLA BLA 
BLA BLA BLA BLA BLA BLA BLA BLA BLA BLA BLA BLA BLA BLA BLA BLA BLA BLA BLA BLA 
BLA BLA BLA BLA BLA BLA BLA BLA BLA BLA BLA BLA BLA BLA BLA BLA BLA BLA BLA BLA 
BLA BLA BLA BLA BLA BLA BLA BLA BLA BLA BLA BLA BLA BLA BLA BLA BLA BLA BLA BLA 
BLA BLA BLA BLA BLA BLA BLA BLA BLA BLA BLA BLA BLA BLA BLA BLA BLA BLA BLA BLA 
BLA BLA BLA BLA BLA BLA BLA BLA BLA BLA BLA BLA BLA BLA BLA BLA BLA BLA BLA BLA 
BLA BLA BLA BLA BLA BLA BLA BLA BLA BLA BLA BLA BLA BLA BLA BLA BLA BLA BLA BLA 
BLA BLA BLA BLA BLA BLA BLA BLA BLA BLA BLA BLA BLA BLA BLA BLA BLA BLA BLA BLA 
BLA BLA BLA BLA BLA BLA BLA BLA BLA BLA BLA BLA BLA BLA BLA BLA BLA BLA BLA BLA 
BLA BLA BLA BLA BLA BLA BLA BLA BLA BLA BLA BLA BLA BLA BLA BLA BLA BLA BLA BLA 
BLA BLA BLA BLA BLA BLA BLA BLA BLA BLA BLA BLA BLA BLA BLA BLA BLA BLA BLA BLA 
BLA BLA BLA BLA BLA BLA BLA BLA BLA BLA BLA BLA BLA BLA BLA BLA BLA BLA BLA BLA 
BLA BLA BLA BLA BLA BLA BLA BLA BLA BLA BLA BLA BLA BLA BLA BLA BLA BLA BLA BLA 
BLA BLA BLA BLA BLA BLA BLA BLA BLA BLA BLA BLA BLA BLA BLA BLA BLA BLA BLA BLA 
BLA BLA BLA BLA BLA BLA BLA BLA BLA BLA BLA BLA BLA BLA BLA BLA BLA BLA BLA BLA 
BLA BLA BLA BLA BLA BLA BLA BLA BLA BLA BLA BLA BLA BLA BLA BLA BLA BLA BLA BLA 
BLA BLA BLA BLA BLA BLA BLA BLA BLA BLA BLA BLA BLA BLA BLA BLA BLA BLA BLA BLA 
BLA BLA BLA BLA BLA BLA BLA BLA BLA BLA BLA BLA BLA BLA BLA BLA BLA BLA BLA BLA 
BLA BLA BLA BLA BLA BLA BLA BLA BLA BLA BLA BLA BLA BLA BLA BLA BLA BLA BLA BLA 
BLA BLA BLA BLA BLA BLA BLA BLA BLA BLA BLA BLA BLA BLA BLA BLA BLA BLA BLA BLA 
BLA BLA BLA BLA BLA BLA BLA BLA BLA BLA BLA BLA BLA BLA BLA BLA BLA BLA BLA BLA 
BLA BLA BLA BLA BLA BLA BLA BLA BLA BLA BLA BLA BLA BLA BLA BLA BLA BLA BLA BLA 
BLA BLA BLA BLA BLA BLA BLA BLA BLA BLA BLA BLA BLA BLA BLA BLA BLA BLA BLA BLA 
BLA BLA BLA BLA BLA BLA BLA BLA BLA BLA BLA BLA BLA BLA BLA BLA BLA BLA BLA BLA 
BLA BLA BLA BLA BLA BLA BLA BLA BLA BLA BLA BLA BLA BLA BLA BLA BLA BLA BLA BLA 
BLA BLA BLA BLA BLA BLA BLA BLA BLA BLA BLA BLA BLA BLA BLA BLA BLA BLA BLA BLA 
BLA BLA BLA BLA BLA BLA BLA BLA BLA BLA BLA BLA BLA BLA BLA BLA BLA BLA BLA BLA 
BLA BLA BLA BLA BLA BLA BLA BLA BLA BLA BLA BLA BLA BLA BLA BLA BLA BLA BLA BLA 
BLA BLA BLA BLA BLA BLA BLA BLA BLA BLA BLA BLA BLA BLA BLA BLA BLA BLA BLA BLA 
BLA BLA BLA BLA BLA BLA BLA BLA BLA BLA BLA BLA BLA BLA BLA BLA BLA BLA BLA BLA 
BLA BLA BLA BLA BLA BLA BLA BLA BLA BLA BLA BLA BLA BLA BLA BLA BLA BLA BLA BLA 
BLA BLA BLA BLA BLA BLA BLA BLA BLA BLA BLA BLA BLA BLA BLA BLA BLA BLA BLA BLA 
BLA BLA BLA BLA BLA BLA BLA BLA BLA BLA BLA BLA BLA BLA BLA BLA BLA BLA BLA BLA 
BLA BLA BLA BLA BLA BLA BLA BLA BLA BLA BLA BLA BLA BLA BLA BLA BLA BLA BLA BLA 
BLA BLA BLA BLA BLA BLA BLA BLA BLA BLA BLA BLA BLA BLA BLA BLA BLA BLA BLA BLA 
BLA BLA BLA BLA BLA BLA BLA BLA BLA BLA BLA BLA BLA BLA BLA BLA BLA BLA BLA BLA 
BLA BLA BLA BLA BLA BLA BLA BLA BLA BLA BLA BLA BLA BLA BLA BLA BLA BLA BLA BLA 
BLA BLA BLA BLA BLA BLA BLA BLA BLA BLA BLA BLA BLA BLA BLA BLA BLA BLA BLA BLA 
BLA BLA BLA BLA BLA BLA BLA BLA BLA BLA BLA BLA BLA BLA BLA BLA BLA BLA BLA BLA 
BLA BLA BLA BLA BLA BLA BLA BLA BLA BLA BLA BLA BLA BLA BLA BLA BLA BLA BLA BLA 
BLA BLA BLA BLA BLA BLA BLA BLA BLA BLA BLA BLA BLA BLA BLA BLA BLA BLA BLA BLA 
BLA BLA BLA BLA BLA BLA BLA BLA BLA BLA BLA BLA BLA BLA BLA BLA BLA BLA BLA BLA 
BLA BLA BLA BLA BLA BLA BLA BLA BLA BLA BLA BLA BLA BLA BLA BLA BLA BLA BLA BLA 
BLA BLA BLA BLA BLA BLA BLA BLA BLA BLA BLA BLA BLA BLA BLA BLA BLA BLA BLA BLA 
BLA BLA BLA BLA BLA BLA BLA BLA BLA BLA BLA BLA BLA BLA BLA BLA BLA BLA BLA BLA 
BLA BLA BLA BLA BLA BLA BLA BLA BLA BLA BLA BLA BLA BLA BLA BLA BLA BLA BLA BLA 
BLA BLA BLA BLA BLA BLA BLA BLA BLA BLA BLA BLA BLA BLA BLA BLA BLA BLA BLA BLA 
BLA BLA BLA BLA BLA BLA BLA BLA BLA BLA BLA BLA BLA BLA BLA BLA BLA BLA BLA BLA 
BLA BLA BLA BLA BLA BLA BLA BLA BLA BLA BLA BLA BLA BLA BLA BLA BLA BLA BLA BLA 
BLA BLA BLA BLA BLA BLA BLA BLA BLA BLA BLA BLA BLA BLA BLA BLA BLA BLA BLA BLA 
BLA BLA BLA BLA BLA BLA BLA BLA BLA BLA BLA BLA BLA BLA BLA BLA BLA BLA BLA BLA 
BLA BLA BLA BLA BLA BLA BLA BLA BLA BLA BLA BLA BLA BLA BLA BLA BLA BLA BLA BLA 
BLA BLA BLA BLA BLA BLA BLA BLA BLA BLA BLA BLA BLA BLA BLA BLA BLA BLA BLA BLA 
BLA BLA BLA BLA BLA BLA BLA BLA BLA BLA BLA BLA BLA BLA BLA BLA BLA BLA BLA BLA 
BLA BLA BLA BLA BLA BLA BLA BLA BLA BLA BLA BLA BLA BLA BLA BLA BLA BLA BLA BLA 
BLA BLA BLA BLA BLA BLA BLA BLA BLA BLA BLA BLA BLA BLA BLA BLA BLA BLA BLA BLA 
BLA BLA BLA BLA BLA BLA BLA BLA BLA BLA BLA BLA BLA BLA BLA BLA BLA BLA BLA BLA 
BLA BLA BLA BLA BLA BLA BLA BLA BLA BLA BLA BLA BLA BLA BLA BLA BLA BLA BLA BLA 
BLA BLA BLA BLA BLA BLA BLA BLA BLA BLA BLA BLA BLA BLA BLA BLA BLA BLA BLA BLA 
BLA BLA BLA BLA BLA BLA BLA BLA BLA BLA BLA BLA BLA BLA BLA BLA BLA BLA BLA BLA 
BLA BLA BLA BLA BLA BLA BLA BLA BLA BLA BLA BLA BLA BLA BLA BLA BLA BLA BLA BLA 
BLA BLA BLA BLA BLA BLA BLA BLA BLA BLA BLA BLA BLA BLA BLA BLA BLA BLA BLA BLA 
BLA BLA BLA BLA BLA BLA BLA BLA BLA BLA BLA BLA BLA BLA BLA BLA BLA BLA BLA BLA 
BLA BLA BLA BLA BLA BLA BLA BLA BLA BLA BLA BLA BLA BLA BLA BLA BLA BLA BLA BLA 
BLA BLA BLA BLA BLA BLA BLA BLA BLA BLA BLA BLA BLA BLA BLA BLA BLA BLA BLA BLA 
BLA BLA BLA BLA BLA BLA BLA BLA BLA BLA BLA BLA BLA BLA BLA BLA BLA BLA BLA BLA 
BLA BLA BLA BLA BLA BLA BLA BLA BLA BLA BLA BLA BLA BLA BLA BLA BLA BLA BLA BLA 
BLA BLA BLA BLA BLA BLA BLA BLA BLA BLA BLA BLA BLA BLA BLA BLA BLA BLA BLA BLA 
BLA BLA BLA BLA BLA BLA BLA BLA BLA BLA BLA BLA BLA BLA BLA BLA BLA BLA BLA BLA 
BLA BLA BLA BLA BLA BLA BLA BLA BLA BLA BLA BLA BLA BLA BLA BLA BLA BLA BLA BLA 
BLA BLA BLA BLA BLA BLA BLA BLA BLA BLA BLA BLA BLA BLA BLA BLA BLA BLA BLA BLA 
BLA BLA BLA BLA BLA BLA BLA BLA BLA BLA BLA BLA BLA BLA BLA BLA BLA BLA BLA BLA 
BLA BLA BLA BLA BLA BLA BLA BLA BLA BLA BLA BLA BLA BLA BLA BLA BLA BLA BLA BLA 
BLA BLA BLA BLA BLA BLA BLA BLA BLA BLA BLA BLA BLA BLA BLA BLA BLA BLA BLA BLA 
BLA BLA BLA BLA BLA BLA BLA BLA BLA BLA BLA BLA BLA BLA BLA BLA BLA BLA BLA BLA 
BLA BLA BLA BLA BLA BLA BLA BLA BLA BLA BLA BLA BLA BLA BLA BLA BLA BLA BLA BLA 
BLA BLA BLA BLA BLA BLA BLA BLA BLA BLA BLA BLA BLA BLA BLA BLA BLA BLA BLA BLA 
BLA BLA BLA BLA BLA BLA BLA BLA BLA BLA BLA BLA BLA BLA BLA BLA BLA BLA BLA BLA 
BLA BLA BLA BLA BLA BLA BLA BLA BLA BLA BLA BLA BLA BLA BLA BLA BLA BLA BLA BLA 
BLA BLA BLA BLA BLA BLA BLA BLA BLA BLA BLA BLA BLA BLA BLA BLA BLA BLA BLA BLA 
BLA BLA BLA BLA BLA BLA BLA BLA BLA BLA BLA BLA BLA BLA BLA BLA BLA BLA BLA BLA 
BLA BLA BLA BLA BLA BLA BLA BLA BLA BLA BLA BLA BLA BLA BLA BLA BLA BLA BLA BLA 
BLA BLA BLA BLA BLA BLA BLA BLA BLA BLA BLA BLA BLA BLA BLA BLA BLA BLA BLA BLA 
BLA BLA BLA BLA BLA BLA BLA BLA BLA BLA BLA BLA BLA BLA BLA BLA BLA BLA BLA BLA 
BLA BLA BLA BLA BLA BLA BLA BLA BLA BLA BLA BLA BLA BLA BLA BLA BLA BLA BLA BLA 
BLA BLA BLA BLA BLA BLA BLA BLA BLA BLA BLA BLA BLA BLA BLA BLA BLA BLA BLA BLA 
BLA BLA BLA BLA BLA BLA BLA BLA BLA BLA BLA BLA BLA BLA BLA BLA BLA BLA BLA BLA 
BLA BLA BLA BLA BLA BLA BLA BLA BLA BLA BLA BLA BLA BLA BLA BLA BLA BLA BLA BLA 
BLA BLA BLA BLA BLA BLA BLA BLA BLA BLA BLA BLA BLA BLA BLA BLA BLA BLA BLA BLA 
BLA BLA BLA BLA BLA BLA BLA BLA BLA BLA BLA BLA BLA BLA BLA BLA BLA BLA BLA BLA 
BLA BLA BLA BLA BLA BLA BLA BLA BLA BLA BLA BLA BLA BLA BLA BLA BLA BLA BLA BLA 
BLA BLA BLA BLA BLA BLA BLA BLA BLA BLA BLA BLA BLA BLA BLA BLA BLA BLA BLA BLA 
BLA BLA BLA BLA BLA BLA BLA BLA BLA BLA BLA BLA BLA BLA BLA BLA BLA BLA BLA BLA 
BLA BLA BLA BLA BLA BLA BLA BLA BLA BLA BLA BLA BLA BLA BLA BLA BLA BLA BLA BLA 
BLA BLA BLA BLA BLA BLA BLA BLA BLA BLA BLA BLA BLA BLA BLA BLA BLA BLA BLA BLA 
BLA BLA BLA BLA BLA BLA BLA BLA BLA BLA BLA BLA BLA BLA BLA BLA BLA BLA BLA BLA 
BLA BLA BLA BLA BLA BLA BLA BLA BLA BLA BLA BLA BLA BLA BLA BLA BLA BLA BLA BLA 
BLA BLA BLA BLA BLA BLA BLA BLA BLA BLA BLA BLA BLA BLA BLA BLA BLA BLA BLA BLA 
BLA BLA BLA BLA BLA BLA BLA BLA BLA BLA BLA BLA BLA BLA BLA BLA BLA BLA BLA BLA 
BLA BLA BLA BLA BLA BLA BLA BLA BLA BLA BLA BLA BLA BLA BLA BLA BLA BLA BLA BLA 
BLA BLA BLA BLA BLA BLA BLA BLA BLA BLA BLA BLA BLA BLA BLA BLA BLA BLA BLA BLA 
BLA BLA BLA BLA BLA BLA BLA BLA BLA BLA BLA BLA BLA BLA BLA BLA BLA BLA BLA BLA 
BLA BLA BLA BLA BLA BLA BLA BLA BLA BLA BLA BLA BLA BLA BLA BLA BLA BLA BLA BLA 
BLA BLA BLA BLA BLA BLA BLA BLA BLA BLA BLA BLA BLA BLA BLA BLA BLA BLA BLA BLA 
BLA BLA BLA BLA BLA BLA BLA BLA BLA BLA BLA BLA BLA BLA BLA BLA BLA BLA BLA BLA 
BLA BLA BLA BLA BLA BLA BLA BLA BLA BLA BLA BLA BLA BLA BLA BLA BLA BLA BLA BLA 
BLA BLA BLA BLA BLA BLA BLA BLA BLA BLA BLA BLA BLA BLA BLA BLA BLA BLA BLA BLA 
BLA BLA BLA BLA BLA BLA BLA BLA BLA BLA BLA BLA BLA BLA BLA BLA BLA BLA BLA BLA 
BLA BLA BLA BLA BLA BLA BLA BLA BLA BLA BLA BLA BLA BLA BLA BLA BLA BLA BLA BLA 
BLA BLA BLA BLA BLA BLA BLA BLA BLA BLA BLA BLA BLA BLA BLA BLA BLA BLA BLA BLA 
BLA BLA BLA BLA BLA BLA BLA BLA BLA BLA BLA BLA BLA BLA BLA BLA BLA BLA BLA BLA 
BLA BLA BLA BLA BLA BLA BLA BLA BLA BLA BLA BLA BLA BLA BLA BLA BLA BLA BLA BLA 
BLA BLA BLA BLA BLA BLA BLA BLA BLA BLA BLA BLA BLA BLA BLA BLA BLA BLA BLA BLA 
BLA BLA BLA BLA BLA BLA BLA BLA BLA BLA BLA BLA BLA BLA BLA BLA BLA BLA BLA BLA 
BLA BLA BLA BLA BLA BLA BLA BLA BLA BLA BLA BLA BLA BLA BLA BLA BLA BLA BLA BLA 
BLA BLA BLA BLA BLA BLA BLA BLA BLA BLA BLA BLA BLA BLA BLA BLA BLA BLA BLA BLA 
BLA BLA BLA BLA BLA BLA BLA BLA BLA BLA BLA BLA BLA BLA BLA BLA BLA BLA BLA BLA 
BLA BLA BLA BLA BLA BLA BLA BLA BLA BLA BLA BLA BLA BLA BLA BLA BLA BLA BLA BLA 
BLA BLA BLA BLA BLA BLA BLA BLA BLA BLA BLA BLA BLA BLA BLA BLA BLA BLA BLA BLA 
BLA BLA BLA BLA BLA BLA BLA BLA BLA BLA BLA BLA BLA BLA BLA BLA BLA BLA BLA BLA 
BLA BLA BLA BLA BLA BLA BLA BLA BLA BLA BLA BLA BLA BLA BLA BLA BLA BLA BLA BLA 
BLA BLA BLA BLA BLA BLA BLA BLA BLA BLA BLA BLA BLA BLA BLA BLA BLA BLA BLA BLA 
BLA BLA BLA BLA BLA BLA BLA BLA BLA BLA BLA BLA BLA BLA BLA BLA BLA BLA BLA BLA 
BLA BLA BLA BLA BLA BLA BLA BLA BLA BLA BLA BLA BLA BLA BLA BLA BLA BLA BLA BLA 
BLA BLA BLA BLA BLA BLA BLA BLA BLA BLA BLA BLA BLA BLA BLA BLA BLA BLA BLA BLA 
BLA BLA BLA BLA BLA BLA BLA BLA BLA BLA BLA BLA BLA BLA BLA BLA BLA BLA BLA BLA 
BLA BLA BLA BLA BLA BLA BLA BLA BLA BLA BLA BLA BLA BLA BLA BLA BLA BLA BLA BLA 
BLA BLA BLA BLA BLA BLA BLA BLA BLA BLA BLA BLA BLA BLA BLA BLA BLA BLA BLA BLA 
BLA BLA BLA BLA BLA BLA BLA BLA BLA BLA BLA BLA BLA BLA BLA BLA BLA BLA BLA BLA 
BLA BLA BLA BLA BLA BLA BLA BLA BLA BLA BLA BLA BLA BLA BLA BLA BLA BLA BLA BLA 
BLA BLA BLA BLA BLA BLA BLA BLA BLA BLA BLA BLA BLA BLA BLA BLA BLA BLA BLA BLA 
BLA BLA BLA BLA BLA BLA BLA BLA BLA BLA BLA BLA BLA BLA BLA BLA BLA BLA BLA BLA 
BLA BLA BLA BLA BLA BLA BLA BLA BLA BLA BLA BLA BLA BLA BLA BLA BLA BLA BLA BLA 
BLA BLA BLA BLA BLA BLA BLA BLA BLA BLA BLA BLA BLA BLA BLA BLA BLA BLA BLA BLA 
BLA BLA BLA BLA BLA BLA BLA BLA BLA BLA BLA BLA BLA BLA BLA BLA BLA BLA BLA BLA 
BLA BLA BLA BLA BLA BLA BLA BLA BLA BLA BLA BLA BLA BLA BLA BLA BLA BLA BLA BLA 
BLA BLA BLA BLA BLA BLA BLA BLA BLA BLA BLA BLA BLA BLA BLA BLA BLA BLA BLA BLA 
BLA BLA BLA BLA BLA BLA BLA BLA BLA BLA BLA BLA BLA BLA BLA BLA BLA BLA BLA BLA 
BLA BLA BLA BLA BLA BLA BLA BLA BLA BLA BLA BLA BLA BLA BLA BLA BLA BLA BLA BLA 
BLA BLA BLA BLA BLA BLA BLA BLA BLA BLA BLA BLA BLA BLA BLA BLA BLA BLA BLA BLA 
BLA BLA BLA BLA BLA BLA BLA BLA BLA BLA BLA BLA BLA BLA BLA BLA BLA BLA BLA BLA 
BLA BLA BLA BLA BLA BLA BLA BLA BLA BLA BLA BLA BLA BLA BLA BLA BLA BLA BLA BLA 
BLA BLA BLA BLA BLA BLA BLA BLA BLA BLA BLA BLA BLA BLA BLA BLA BLA BLA BLA BLA 
BLA BLA BLA BLA BLA BLA BLA BLA BLA BLA BLA BLA BLA BLA BLA BLA BLA BLA BLA BLA 
BLA BLA BLA BLA BLA BLA BLA BLA BLA BLA BLA BLA BLA BLA BLA BLA BLA BLA BLA BLA 
BLA BLA BLA BLA BLA BLA BLA BLA BLA BLA BLA BLA BLA BLA BLA BLA BLA BLA BLA BLA 
BLA BLA BLA BLA BLA BLA BLA BLA BLA BLA BLA BLA BLA BLA BLA BLA BLA BLA BLA BLA 
BLA BLA BLA BLA BLA BLA BLA BLA BLA BLA BLA BLA BLA BLA BLA BLA BLA BLA BLA BLA 
BLA BLA BLA BLA BLA BLA BLA BLA BLA BLA BLA BLA BLA BLA BLA BLA BLA BLA BLA BLA 
BLA BLA BLA BLA BLA BLA BLA BLA BLA BLA BLA BLA BLA BLA BLA BLA BLA BLA BLA BLA 
BLA BLA BLA BLA BLA BLA BLA BLA BLA BLA BLA BLA BLA BLA BLA BLA BLA BLA BLA BLA 
BLA BLA BLA BLA BLA BLA BLA BLA BLA BLA BLA BLA BLA BLA BLA BLA BLA BLA BLA BLA 
BLA BLA BLA BLA BLA BLA BLA BLA BLA BLA BLA BLA BLA BLA BLA BLA BLA BLA BLA BLA 
BLA BLA BLA BLA BLA BLA BLA BLA BLA BLA BLA BLA BLA BLA BLA BLA BLA BLA BLA BLA 
BLA BLA BLA BLA BLA BLA BLA BLA BLA BLA BLA BLA BLA BLA BLA BLA BLA BLA BLA BLA 
BLA BLA BLA BLA BLA BLA BLA BLA BLA BLA BLA BLA BLA BLA BLA BLA BLA BLA BLA BLA 
BLA BLA BLA BLA BLA BLA BLA BLA BLA BLA BLA BLA BLA BLA BLA BLA BLA BLA BLA BLA 
BLA BLA BLA BLA BLA BLA BLA BLA BLA BLA BLA BLA BLA BLA BLA BLA BLA BLA BLA BLA 
BLA BLA BLA BLA BLA BLA BLA BLA BLA BLA BLA BLA BLA BLA BLA BLA BLA BLA BLA BLA 
BLA BLA BLA BLA BLA BLA BLA BLA BLA BLA BLA BLA BLA BLA BLA BLA BLA BLA BLA BLA 
BLA BLA BLA BLA BLA BLA BLA BLA BLA BLA BLA BLA BLA BLA BLA BLA BLA BLA BLA BLA 
BLA BLA BLA BLA BLA BLA BLA BLA BLA BLA BLA BLA BLA BLA BLA BLA BLA BLA BLA BLA 
BLA BLA BLA BLA BLA BLA BLA BLA BLA BLA BLA BLA BLA BLA BLA BLA BLA BLA BLA BLA 
BLA BLA BLA BLA BLA BLA BLA BLA BLA BLA BLA BLA BLA BLA BLA BLA BLA BLA BLA BLA 
BLA BLA BLA BLA BLA BLA BLA BLA BLA BLA BLA BLA BLA BLA BLA BLA BLA BLA BLA BLA 
BLA BLA BLA BLA BLA BLA BLA BLA BLA BLA BLA BLA BLA BLA BLA BLA BLA BLA BLA BLA 
BLA BLA BLA BLA BLA BLA BLA BLA BLA BLA BLA BLA BLA BLA BLA BLA BLA BLA BLA BLA 
BLA BLA BLA BLA BLA BLA BLA BLA BLA BLA BLA BLA BLA BLA BLA BLA BLA BLA BLA BLA 
BLA BLA BLA BLA BLA BLA BLA BLA BLA BLA BLA BLA BLA BLA BLA BLA BLA BLA BLA BLA 
BLA BLA BLA BLA BLA BLA BLA BLA BLA BLA BLA BLA BLA BLA BLA BLA BLA BLA BLA BLA 
BLA BLA BLA BLA BLA BLA BLA BLA BLA BLA BLA BLA BLA BLA BLA BLA BLA BLA BLA BLA 
BLA BLA BLA BLA BLA BLA BLA BLA BLA BLA BLA BLA BLA BLA BLA BLA BLA BLA BLA BLA 
BLA BLA BLA BLA BLA BLA BLA BLA BLA BLA BLA BLA BLA BLA BLA BLA BLA BLA BLA BLA 
BLA BLA BLA BLA BLA BLA BLA BLA BLA BLA BLA BLA BLA BLA BLA BLA BLA BLA BLA BLA 
BLA BLA BLA BLA BLA BLA BLA BLA BLA BLA BLA BLA BLA BLA BLA BLA BLA BLA BLA BLA 
BLA BLA BLA BLA BLA BLA BLA BLA BLA BLA BLA BLA BLA BLA BLA BLA BLA BLA BLA BLA 
BLA BLA BLA BLA BLA BLA BLA BLA BLA BLA BLA BLA BLA BLA BLA BLA BLA BLA BLA BLA 
BLA BLA BLA BLA BLA BLA BLA BLA BLA BLA BLA BLA BLA BLA BLA BLA BLA BLA BLA BLA 
BLA BLA BLA BLA BLA BLA BLA BLA BLA BLA BLA BLA BLA BLA BLA BLA BLA BLA BLA BLA 
BLA BLA BLA BLA BLA BLA BLA BLA BLA BLA BLA BLA BLA BLA BLA BLA BLA BLA BLA BLA 
BLA BLA BLA BLA BLA BLA BLA BLA BLA BLA BLA BLA BLA BLA BLA BLA BLA BLA BLA BLA 
BLA BLA BLA BLA BLA BLA BLA BLA BLA BLA BLA BLA BLA BLA BLA BLA BLA BLA BLA BLA 
BLA BLA BLA BLA BLA BLA BLA BLA BLA BLA BLA BLA BLA BLA BLA BLA BLA BLA BLA BLA 
BLA BLA BLA BLA BLA BLA BLA BLA BLA BLA BLA BLA BLA BLA BLA BLA BLA BLA BLA BLA 
BLA BLA BLA BLA BLA BLA BLA BLA BLA BLA BLA BLA BLA BLA BLA BLA BLA BLA BLA BLA 
BLA BLA BLA BLA BLA BLA BLA BLA BLA BLA BLA BLA BLA BLA BLA BLA BLA BLA BLA BLA 
BLA BLA BLA BLA BLA BLA BLA BLA BLA BLA BLA BLA BLA BLA BLA BLA BLA BLA BLA BLA 
BLA BLA BLA BLA BLA BLA BLA BLA BLA BLA BLA BLA BLA BLA BLA BLA BLA BLA BLA BLA 
BLA BLA BLA BLA BLA BLA BLA BLA BLA BLA BLA BLA BLA BLA BLA BLA BLA BLA BLA BLA 
BLA BLA BLA BLA BLA BLA BLA BLA BLA BLA BLA BLA BLA BLA BLA BLA BLA BLA BLA BLA 
BLA BLA BLA BLA BLA BLA BLA BLA BLA BLA BLA BLA BLA BLA BLA BLA BLA BLA BLA BLA 
BLA BLA BLA BLA BLA BLA BLA BLA BLA BLA BLA BLA BLA BLA BLA BLA BLA BLA BLA BLA 
BLA BLA BLA BLA BLA BLA BLA BLA BLA BLA BLA BLA BLA BLA BLA BLA BLA BLA BLA BLA 
BLA BLA BLA BLA BLA BLA BLA BLA BLA BLA BLA BLA BLA BLA BLA BLA BLA BLA BLA BLA 
BLA BLA BLA BLA BLA BLA BLA BLA BLA BLA BLA BLA BLA BLA BLA BLA BLA BLA BLA BLA 
BLA BLA BLA BLA BLA BLA BLA BLA BLA BLA BLA BLA BLA BLA BLA BLA BLA BLA BLA BLA 
BLA BLA BLA BLA BLA BLA BLA BLA BLA BLA BLA BLA BLA BLA BLA BLA BLA BLA BLA BLA 
BLA BLA BLA BLA BLA BLA BLA BLA BLA BLA BLA BLA BLA BLA BLA BLA BLA BLA BLA BLA 
BLA BLA BLA BLA BLA BLA BLA BLA BLA BLA BLA BLA BLA BLA BLA BLA BLA BLA BLA BLA 
BLA BLA BLA BLA BLA BLA BLA BLA BLA BLA BLA BLA BLA BLA BLA BLA BLA BLA BLA BLA 
BLA BLA BLA BLA BLA BLA BLA BLA BLA BLA BLA BLA BLA BLA BLA BLA BLA BLA BLA BLA 
BLA BLA BLA BLA BLA BLA BLA BLA BLA BLA BLA BLA BLA BLA BLA BLA BLA BLA BLA BLA 
BLA BLA BLA BLA BLA BLA BLA BLA BLA BLA BLA BLA BLA BLA BLA BLA BLA BLA BLA BLA 
BLA BLA BLA BLA BLA BLA BLA BLA BLA BLA BLA BLA BLA BLA BLA BLA BLA BLA BLA BLA 
BLA BLA BLA BLA BLA BLA BLA BLA BLA BLA BLA BLA BLA BLA BLA BLA BLA BLA BLA BLA 
BLA BLA BLA BLA BLA BLA BLA BLA BLA BLA BLA BLA BLA BLA BLA BLA BLA BLA BLA BLA 
BLA BLA BLA BLA BLA BLA BLA BLA BLA BLA BLA BLA BLA BLA BLA BLA BLA BLA BLA BLA 
BLA BLA BLA BLA BLA BLA BLA BLA BLA BLA BLA BLA BLA BLA BLA BLA BLA BLA BLA BLA 
BLA BLA BLA BLA BLA BLA BLA BLA BLA BLA BLA BLA BLA BLA BLA BLA BLA BLA BLA BLA 
BLA BLA BLA BLA BLA BLA BLA BLA BLA BLA BLA BLA BLA BLA BLA BLA BLA BLA BLA BLA 
BLA BLA BLA BLA BLA BLA BLA BLA BLA BLA BLA BLA BLA BLA BLA BLA BLA BLA BLA BLA 
BLA BLA BLA BLA BLA BLA BLA BLA BLA BLA BLA BLA BLA BLA BLA BLA BLA BLA BLA BLA 
BLA BLA BLA BLA BLA BLA BLA BLA BLA BLA BLA BLA BLA BLA BLA BLA BLA BLA BLA BLA 
BLA BLA BLA BLA BLA BLA BLA BLA BLA BLA BLA BLA BLA BLA BLA BLA BLA BLA BLA BLA 
BLA BLA BLA BLA BLA BLA BLA BLA BLA BLA BLA BLA BLA BLA BLA BLA BLA BLA BLA BLA 
BLA BLA BLA BLA BLA BLA BLA BLA BLA BLA BLA BLA BLA BLA BLA BLA BLA BLA BLA BLA 
BLA BLA BLA BLA BLA BLA BLA BLA BLA BLA BLA BLA BLA BLA BLA BLA BLA BLA BLA BLA 
BLA BLA BLA BLA BLA BLA BLA BLA BLA BLA BLA BLA BLA BLA BLA BLA BLA BLA BLA BLA 
BLA BLA BLA BLA BLA BLA BLA BLA BLA BLA BLA BLA BLA BLA BLA BLA BLA BLA BLA BLA 
BLA BLA BLA BLA BLA BLA BLA BLA BLA BLA BLA BLA BLA BLA BLA BLA BLA BLA BLA BLA 
BLA BLA BLA BLA BLA BLA BLA BLA BLA BLA BLA BLA BLA BLA BLA BLA BLA BLA BLA BLA 
BLA BLA BLA BLA BLA BLA BLA BLA BLA BLA BLA BLA BLA BLA BLA BLA BLA BLA BLA BLA 
BLA BLA BLA BLA BLA BLA BLA BLA BLA BLA BLA BLA BLA BLA BLA BLA BLA BLA BLA BLA 
BLA BLA BLA BLA BLA BLA BLA BLA BLA BLA BLA BLA BLA BLA BLA BLA BLA BLA BLA BLA 
BLA BLA BLA BLA BLA BLA BLA BLA BLA BLA BLA BLA BLA BLA BLA BLA BLA BLA BLA BLA 
BLA BLA BLA BLA BLA BLA BLA BLA BLA BLA BLA BLA BLA BLA BLA BLA BLA BLA BLA BLA 
BLA BLA BLA BLA BLA BLA BLA BLA BLA BLA BLA BLA BLA BLA BLA BLA BLA BLA BLA BLA 
BLA BLA BLA BLA BLA BLA BLA BLA BLA BLA BLA BLA BLA BLA BLA BLA BLA BLA BLA BLA 
BLA BLA BLA BLA BLA BLA BLA BLA BLA BLA BLA BLA BLA BLA BLA BLA BLA BLA BLA BLA 
BLA BLA BLA BLA BLA BLA BLA BLA BLA BLA BLA BLA BLA BLA BLA BLA BLA BLA BLA BLA 
BLA BLA BLA BLA BLA BLA BLA BLA BLA BLA BLA BLA BLA BLA BLA BLA BLA BLA BLA BLA 
BLA BLA BLA BLA BLA BLA BLA BLA BLA BLA BLA BLA BLA BLA BLA BLA BLA BLA BLA BLA 
BLA BLA BLA BLA BLA BLA BLA BLA BLA BLA BLA BLA BLA BLA BLA BLA BLA BLA BLA BLA 
BLA BLA BLA BLA BLA BLA BLA BLA BLA BLA BLA BLA BLA BLA BLA BLA BLA BLA BLA BLA 
BLA BLA BLA BLA BLA BLA BLA BLA BLA BLA BLA BLA BLA BLA BLA BLA BLA BLA BLA BLA 
BLA BLA BLA BLA BLA BLA BLA BLA BLA BLA BLA BLA BLA BLA BLA BLA BLA BLA BLA BLA 
BLA BLA BLA BLA BLA BLA BLA BLA BLA BLA BLA BLA BLA BLA BLA BLA BLA BLA BLA BLA 
BLA BLA BLA BLA BLA BLA BLA BLA BLA BLA BLA BLA BLA BLA BLA BLA BLA BLA BLA BLA 
BLA BLA BLA BLA BLA BLA BLA BLA BLA BLA BLA BLA BLA BLA BLA BLA BLA BLA BLA BLA 
BLA BLA BLA BLA BLA BLA BLA BLA BLA BLA BLA BLA BLA BLA BLA BLA BLA BLA BLA BLA 
BLA BLA BLA BLA BLA BLA BLA BLA BLA BLA BLA BLA BLA BLA BLA BLA BLA BLA BLA BLA 
BLA BLA BLA BLA BLA BLA BLA BLA BLA BLA BLA BLA BLA BLA BLA BLA BLA BLA BLA BLA 
BLA BLA BLA BLA BLA BLA BLA BLA BLA BLA BLA BLA BLA BLA BLA BLA BLA BLA BLA BLA 
BLA BLA BLA BLA BLA BLA BLA BLA BLA BLA BLA BLA BLA BLA BLA BLA BLA BLA BLA BLA 
BLA BLA BLA BLA BLA BLA BLA BLA BLA BLA BLA BLA BLA BLA BLA BLA BLA BLA BLA BLA 
BLA BLA BLA BLA BLA BLA BLA BLA BLA BLA BLA BLA BLA BLA BLA BLA BLA BLA BLA BLA 
BLA BLA BLA BLA BLA BLA BLA BLA BLA BLA BLA BLA BLA BLA BLA BLA BLA BLA BLA BLA 
BLA BLA BLA BLA BLA BLA BLA BLA BLA BLA BLA BLA BLA BLA BLA BLA BLA BLA BLA BLA 
BLA BLA BLA BLA BLA BLA BLA BLA BLA BLA BLA BLA BLA BLA BLA BLA BLA BLA BLA BLA 
BLA BLA BLA BLA BLA BLA BLA BLA BLA BLA BLA BLA BLA BLA BLA BLA BLA BLA BLA BLA 
BLA BLA BLA BLA BLA BLA BLA BLA BLA BLA BLA BLA BLA BLA BLA BLA BLA BLA BLA BLA 
BLA BLA BLA BLA BLA BLA BLA BLA BLA BLA BLA BLA BLA BLA BLA BLA BLA BLA BLA BLA 
BLA BLA BLA BLA BLA BLA BLA BLA BLA BLA BLA BLA BLA BLA BLA BLA BLA BLA BLA BLA 
BLA BLA BLA BLA BLA BLA BLA BLA BLA BLA BLA BLA BLA BLA BLA BLA BLA BLA BLA BLA 
BLA BLA BLA BLA BLA BLA BLA BLA BLA BLA BLA BLA BLA BLA BLA BLA BLA BLA BLA BLA 
BLA BLA BLA BLA BLA BLA BLA BLA BLA BLA BLA BLA BLA BLA BLA BLA BLA BLA BLA BLA 
BLA BLA BLA BLA BLA BLA BLA BLA BLA BLA BLA BLA BLA BLA BLA BLA BLA BLA BLA BLA 
BLA BLA BLA BLA BLA BLA BLA BLA BLA BLA BLA BLA BLA BLA BLA BLA BLA BLA BLA BLA 
BLA BLA BLA BLA BLA BLA BLA BLA BLA BLA BLA BLA BLA BLA BLA BLA BLA BLA BLA BLA 
BLA BLA BLA BLA BLA BLA BLA BLA BLA BLA BLA BLA BLA BLA BLA BLA BLA BLA BLA BLA 
BLA BLA BLA BLA BLA BLA BLA BLA BLA BLA BLA BLA BLA BLA BLA BLA BLA BLA BLA BLA 
BLA BLA BLA BLA BLA BLA BLA BLA BLA BLA BLA BLA BLA BLA BLA BLA BLA BLA BLA BLA 
BLA BLA BLA BLA BLA BLA BLA BLA BLA BLA BLA BLA BLA BLA BLA BLA BLA BLA BLA BLA 
BLA BLA BLA BLA BLA BLA BLA BLA BLA BLA BLA BLA BLA BLA BLA BLA BLA BLA BLA BLA 
BLA BLA BLA BLA BLA BLA BLA BLA BLA BLA BLA BLA BLA BLA BLA BLA BLA BLA BLA BLA 
BLA BLA BLA BLA BLA BLA BLA BLA BLA BLA BLA BLA BLA BLA BLA BLA BLA BLA BLA BLA 
BLA BLA BLA BLA BLA BLA BLA BLA BLA BLA BLA BLA BLA BLA BLA BLA BLA BLA BLA BLA 
BLA BLA BLA BLA BLA BLA BLA BLA BLA BLA BLA BLA BLA BLA BLA BLA BLA BLA BLA BLA 
BLA BLA BLA BLA BLA BLA BLA BLA BLA BLA BLA BLA BLA BLA BLA BLA BLA BLA BLA BLA 
BLA BLA BLA BLA BLA BLA BLA BLA BLA BLA BLA BLA BLA BLA BLA BLA BLA BLA BLA BLA 
BLA BLA BLA BLA BLA BLA BLA BLA BLA BLA BLA BLA BLA BLA BLA BLA BLA BLA BLA BLA 
BLA BLA BLA BLA BLA BLA BLA BLA BLA BLA BLA BLA BLA BLA BLA BLA BLA BLA BLA BLA 
BLA BLA BLA BLA BLA BLA BLA BLA BLA BLA BLA BLA BLA BLA BLA BLA BLA BLA BLA BLA 
BLA BLA BLA BLA BLA BLA BLA BLA BLA BLA BLA BLA BLA BLA BLA BLA BLA BLA BLA BLA 
BLA BLA BLA BLA BLA BLA BLA BLA BLA BLA BLA BLA BLA BLA BLA BLA BLA BLA BLA BLA 
BLA BLA BLA BLA BLA BLA BLA BLA BLA BLA BLA BLA BLA BLA BLA BLA BLA BLA BLA BLA 
BLA BLA BLA BLA BLA BLA BLA BLA BLA BLA BLA BLA BLA BLA BLA BLA BLA BLA BLA BLA 
BLA BLA BLA BLA BLA BLA BLA BLA BLA BLA BLA BLA BLA BLA BLA BLA BLA BLA BLA BLA 
BLA BLA BLA BLA BLA BLA BLA BLA BLA BLA BLA BLA BLA BLA BLA BLA BLA BLA BLA BLA 
BLA BLA BLA BLA BLA BLA BLA BLA BLA BLA BLA BLA BLA BLA BLA BLA BLA BLA BLA BLA 
BLA BLA BLA BLA BLA BLA BLA BLA BLA BLA BLA BLA BLA BLA BLA BLA BLA BLA BLA BLA 
BLA BLA BLA BLA BLA BLA BLA BLA BLA BLA BLA BLA BLA BLA BLA BLA BLA BLA BLA BLA 
BLA BLA BLA BLA BLA BLA BLA BLA BLA BLA BLA BLA BLA BLA BLA BLA BLA BLA BLA BLA 
BLA BLA BLA BLA BLA BLA BLA BLA BLA BLA BLA BLA BLA BLA BLA BLA BLA BLA BLA BLA 
BLA BLA BLA BLA BLA BLA BLA BLA BLA BLA BLA BLA BLA BLA BLA BLA BLA BLA BLA BLA 
BLA BLA BLA BLA BLA BLA BLA BLA BLA BLA BLA BLA BLA BLA BLA BLA BLA BLA BLA BLA 
BLA BLA BLA BLA BLA BLA BLA BLA BLA BLA BLA BLA BLA BLA BLA BLA BLA BLA BLA BLA 
BLA BLA BLA BLA BLA BLA BLA BLA BLA BLA BLA BLA BLA BLA BLA BLA BLA BLA BLA BLA 
BLA BLA BLA BLA BLA BLA BLA BLA BLA BLA BLA BLA BLA BLA BLA BLA BLA BLA BLA BLA 
BLA BLA BLA BLA BLA BLA BLA BLA BLA BLA BLA BLA BLA BLA BLA BLA BLA BLA BLA BLA 
BLA BLA BLA BLA BLA BLA BLA BLA BLA BLA BLA BLA BLA BLA BLA BLA BLA BLA BLA BLA 
BLA BLA BLA BLA BLA BLA BLA BLA BLA BLA BLA BLA BLA BLA BLA BLA BLA BLA BLA BLA 
BLA BLA BLA BLA BLA BLA BLA BLA BLA BLA BLA BLA BLA BLA BLA BLA BLA BLA BLA BLA 
BLA BLA BLA BLA BLA BLA BLA BLA BLA BLA BLA BLA BLA BLA BLA BLA BLA BLA BLA BLA 
BLA BLA BLA BLA BLA BLA BLA BLA BLA BLA BLA BLA BLA BLA BLA BLA BLA BLA BLA BLA 
BLA BLA BLA BLA BLA BLA BLA BLA BLA BLA BLA BLA BLA BLA BLA BLA BLA BLA BLA BLA 
BLA BLA BLA BLA BLA BLA BLA BLA BLA BLA BLA BLA BLA BLA BLA BLA BLA BLA BLA BLA 
BLA BLA BLA BLA BLA BLA BLA BLA BLA BLA BLA BLA BLA BLA BLA BLA BLA BLA BLA BLA 
BLA BLA BLA BLA BLA BLA BLA BLA BLA BLA BLA BLA BLA BLA BLA BLA BLA BLA BLA BLA 
BLA BLA BLA BLA BLA BLA BLA BLA BLA BLA BLA BLA BLA BLA BLA BLA BLA BLA BLA BLA 
BLA BLA BLA BLA BLA BLA BLA BLA BLA BLA BLA BLA BLA BLA BLA BLA BLA BLA BLA BLA 
BLA BLA BLA BLA BLA BLA BLA BLA BLA BLA BLA BLA BLA BLA BLA BLA BLA BLA BLA BLA 
BLA BLA BLA BLA BLA BLA BLA BLA BLA BLA BLA BLA BLA BLA BLA BLA BLA BLA BLA BLA 
BLA BLA BLA BLA BLA BLA BLA BLA BLA BLA BLA BLA BLA BLA BLA BLA BLA BLA BLA BLA 
BLA BLA BLA BLA BLA BLA BLA BLA BLA BLA BLA BLA BLA BLA BLA BLA BLA BLA BLA BLA 
BLA BLA BLA BLA BLA BLA BLA BLA BLA BLA BLA BLA BLA BLA BLA BLA BLA BLA BLA BLA 
BLA BLA BLA BLA BLA BLA BLA BLA BLA BLA BLA BLA BLA BLA BLA BLA BLA BLA BLA BLA 
BLA BLA BLA BLA BLA BLA BLA BLA BLA BLA BLA BLA BLA BLA BLA BLA BLA BLA BLA BLA 
BLA BLA BLA BLA BLA BLA BLA BLA BLA BLA BLA BLA BLA BLA BLA BLA BLA BLA BLA BLA 
BLA BLA BLA BLA BLA BLA BLA BLA BLA BLA BLA BLA BLA BLA BLA BLA BLA BLA BLA BLA 
BLA BLA BLA BLA BLA BLA BLA BLA BLA BLA BLA BLA BLA BLA BLA BLA BLA BLA BLA BLA 
BLA BLA BLA BLA BLA BLA BLA BLA BLA BLA BLA BLA BLA BLA BLA BLA BLA BLA BLA BLA 
BLA BLA BLA BLA BLA BLA BLA BLA BLA BLA BLA BLA BLA BLA BLA BLA BLA BLA BLA BLA 
BLA BLA BLA BLA BLA BLA BLA BLA BLA BLA BLA BLA BLA BLA BLA BLA BLA BLA BLA BLA 
BLA BLA BLA BLA BLA BLA BLA BLA BLA BLA BLA BLA BLA BLA BLA BLA BLA BLA BLA BLA 
BLA BLA BLA BLA BLA BLA BLA BLA BLA BLA BLA BLA BLA BLA BLA BLA BLA BLA BLA BLA 
BLA BLA BLA BLA BLA BLA BLA BLA BLA BLA BLA BLA BLA BLA BLA BLA BLA BLA BLA BLA 
BLA BLA BLA BLA BLA BLA BLA BLA BLA BLA BLA BLA BLA BLA BLA BLA BLA BLA BLA BLA 
BLA BLA BLA BLA BLA BLA BLA BLA BLA BLA BLA BLA BLA BLA BLA BLA BLA BLA BLA BLA 
BLA BLA BLA BLA BLA BLA BLA BLA BLA BLA BLA BLA BLA BLA BLA BLA BLA BLA BLA BLA 
BLA BLA BLA BLA BLA BLA BLA BLA BLA BLA BLA BLA BLA BLA BLA BLA BLA BLA BLA BLA 
BLA BLA BLA BLA BLA BLA BLA BLA BLA BLA BLA BLA BLA BLA BLA BLA BLA BLA BLA BLA 
BLA BLA BLA BLA BLA BLA BLA BLA BLA BLA BLA BLA BLA BLA BLA BLA BLA BLA BLA BLA 
BLA BLA BLA BLA BLA BLA BLA BLA BLA BLA BLA BLA BLA BLA BLA BLA BLA BLA BLA BLA 
BLA BLA BLA BLA BLA BLA BLA BLA BLA BLA BLA BLA BLA BLA BLA BLA BLA BLA BLA BLA 
BLA BLA BLA BLA BLA BLA BLA BLA BLA BLA BLA BLA BLA BLA BLA BLA BLA BLA BLA BLA 
BLA BLA BLA BLA BLA BLA BLA BLA BLA BLA BLA BLA BLA BLA BLA BLA BLA BLA BLA BLA 
BLA BLA BLA BLA BLA BLA BLA BLA BLA BLA BLA BLA BLA BLA BLA BLA BLA BLA BLA BLA 
BLA BLA BLA BLA BLA BLA BLA BLA BLA BLA BLA BLA BLA BLA BLA BLA BLA BLA BLA BLA 
BLA BLA BLA BLA BLA BLA BLA BLA BLA BLA BLA BLA BLA BLA BLA BLA BLA BLA BLA BLA 
BLA BLA BLA BLA BLA BLA BLA BLA BLA BLA BLA BLA BLA BLA BLA BLA BLA BLA BLA BLA 
BLA BLA BLA BLA BLA BLA BLA BLA BLA BLA BLA BLA BLA BLA BLA BLA BLA BLA BLA BLA 
BLA BLA BLA BLA BLA BLA BLA BLA BLA BLA BLA BLA BLA BLA BLA BLA BLA BLA BLA BLA 
BLA BLA BLA BLA BLA BLA BLA BLA BLA BLA BLA BLA BLA BLA BLA BLA BLA BLA BLA BLA 
BLA BLA BLA BLA BLA BLA BLA BLA BLA BLA BLA BLA BLA BLA BLA BLA BLA BLA BLA BLA 
BLA BLA BLA BLA BLA BLA BLA BLA BLA BLA BLA BLA BLA BLA BLA BLA BLA BLA BLA BLA 
BLA BLA BLA BLA BLA BLA BLA BLA BLA BLA BLA BLA BLA BLA BLA BLA BLA BLA BLA BLA 
BLA BLA BLA BLA BLA BLA BLA BLA BLA BLA BLA BLA BLA BLA BLA BLA BLA BLA BLA BLA 
BLA BLA BLA BLA BLA BLA BLA BLA BLA BLA BLA BLA BLA BLA BLA BLA BLA BLA BLA BLA 
BLA BLA BLA BLA BLA BLA BLA BLA BLA BLA BLA BLA BLA BLA BLA BLA BLA BLA BLA BLA 
BLA BLA BLA BLA BLA BLA BLA BLA BLA BLA BLA BLA BLA BLA BLA BLA BLA BLA BLA BLA 
BLA BLA BLA BLA BLA BLA BLA BLA BLA BLA BLA BLA BLA BLA BLA BLA BLA BLA BLA BLA 
BLA BLA BLA BLA BLA BLA BLA BLA BLA BLA BLA BLA BLA BLA BLA BLA BLA BLA BLA BLA 
BLA BLA BLA BLA BLA BLA BLA BLA BLA BLA BLA BLA BLA BLA BLA BLA BLA BLA BLA BLA 
BLA BLA BLA BLA BLA BLA BLA BLA BLA BLA BLA BLA BLA BLA BLA BLA BLA BLA BLA BLA 
BLA BLA BLA BLA BLA BLA BLA BLA BLA BLA BLA BLA BLA BLA BLA BLA BLA BLA BLA BLA 
BLA BLA BLA BLA BLA BLA BLA BLA BLA BLA BLA BLA BLA BLA BLA BLA BLA BLA BLA BLA 
BLA BLA BLA BLA BLA BLA BLA BLA BLA BLA BLA BLA BLA BLA BLA BLA BLA BLA BLA BLA 
BLA BLA BLA BLA BLA BLA BLA BLA BLA BLA BLA BLA BLA BLA BLA BLA BLA BLA BLA BLA 
BLA BLA BLA BLA BLA BLA BLA BLA BLA BLA BLA BLA BLA BLA BLA BLA BLA BLA BLA BLA 
BLA BLA BLA BLA BLA BLA BLA BLA BLA BLA BLA BLA BLA BLA BLA BLA BLA BLA BLA BLA 
BLA BLA BLA BLA BLA BLA BLA BLA BLA BLA BLA BLA BLA BLA BLA BLA BLA BLA BLA BLA 
BLA BLA BLA BLA BLA BLA BLA BLA BLA BLA BLA BLA BLA BLA BLA BLA BLA BLA BLA BLA 
BLA BLA BLA BLA BLA BLA BLA BLA BLA BLA BLA BLA BLA BLA BLA BLA BLA BLA BLA BLA 
BLA BLA BLA BLA BLA BLA BLA BLA BLA BLA BLA BLA BLA BLA BLA BLA BLA BLA BLA BLA 
BLA BLA BLA BLA BLA BLA BLA BLA BLA BLA BLA BLA BLA BLA BLA BLA BLA BLA BLA BLA 
BLA BLA BLA BLA BLA BLA BLA BLA BLA BLA BLA BLA BLA BLA BLA BLA BLA BLA BLA BLA 
BLA BLA BLA BLA BLA BLA BLA BLA BLA BLA BLA BLA BLA BLA BLA BLA BLA BLA BLA BLA 
BLA BLA BLA BLA BLA BLA BLA BLA BLA BLA BLA BLA BLA BLA BLA BLA BLA BLA BLA BLA 
BLA BLA BLA BLA BLA BLA BLA BLA BLA BLA BLA BLA BLA BLA BLA BLA BLA BLA BLA BLA 
BLA BLA BLA BLA BLA BLA BLA BLA BLA BLA BLA BLA BLA BLA BLA BLA BLA BLA BLA BLA 
BLA BLA BLA BLA BLA BLA BLA BLA BLA BLA BLA BLA BLA BLA BLA BLA BLA BLA BLA BLA 
BLA BLA BLA BLA BLA BLA BLA BLA BLA BLA BLA BLA BLA BLA BLA BLA BLA BLA BLA BLA 
BLA BLA BLA BLA BLA BLA BLA BLA BLA BLA BLA BLA BLA BLA BLA BLA BLA BLA BLA BLA 
BLA BLA BLA BLA BLA BLA BLA BLA BLA BLA BLA BLA BLA BLA BLA BLA BLA BLA BLA BLA 
BLA BLA BLA BLA BLA BLA BLA BLA BLA BLA BLA BLA BLA BLA BLA BLA BLA BLA BLA BLA 
BLA BLA BLA BLA BLA BLA BLA BLA BLA BLA BLA BLA BLA BLA BLA BLA BLA BLA BLA BLA 
BLA BLA BLA BLA BLA BLA BLA BLA BLA BLA BLA BLA BLA BLA BLA BLA BLA BLA BLA BLA 
BLA BLA BLA BLA BLA BLA BLA BLA BLA BLA BLA BLA BLA BLA BLA BLA BLA BLA BLA BLA 
BLA BLA BLA BLA BLA BLA BLA BLA BLA BLA BLA BLA BLA BLA BLA BLA BLA BLA BLA BLA 
BLA BLA BLA BLA BLA BLA BLA BLA BLA BLA BLA BLA BLA BLA BLA BLA BLA BLA BLA BLA 
BLA BLA BLA BLA BLA BLA BLA BLA BLA BLA BLA BLA BLA BLA BLA BLA BLA BLA BLA BLA 
BLA BLA BLA BLA BLA BLA BLA BLA BLA BLA BLA BLA BLA BLA BLA BLA BLA BLA BLA BLA 
BLA BLA BLA BLA BLA BLA BLA BLA BLA BLA BLA BLA BLA BLA BLA BLA BLA BLA BLA BLA 
BLA BLA BLA BLA BLA BLA BLA BLA BLA BLA BLA BLA BLA BLA BLA BLA BLA BLA BLA BLA 
BLA BLA BLA BLA BLA BLA BLA BLA BLA BLA BLA BLA BLA BLA BLA BLA BLA BLA BLA BLA 
BLA BLA BLA BLA BLA BLA BLA BLA BLA BLA BLA BLA BLA BLA BLA BLA BLA BLA BLA BLA 
BLA BLA BLA BLA BLA BLA BLA BLA BLA BLA BLA BLA BLA BLA BLA BLA BLA BLA BLA BLA 
BLA BLA BLA BLA BLA BLA BLA BLA BLA BLA BLA BLA BLA BLA BLA BLA BLA BLA BLA BLA 
BLA BLA BLA BLA BLA BLA BLA BLA BLA BLA BLA BLA BLA BLA BLA BLA BLA BLA BLA BLA 
BLA BLA BLA BLA BLA BLA BLA BLA BLA BLA BLA BLA BLA BLA BLA BLA BLA BLA BLA BLA 
BLA BLA BLA BLA BLA BLA BLA BLA BLA BLA BLA BLA BLA BLA BLA BLA BLA BLA BLA BLA 
BLA BLA BLA BLA BLA BLA BLA BLA BLA BLA BLA BLA BLA BLA BLA BLA BLA BLA BLA BLA 
BLA BLA BLA BLA BLA BLA BLA BLA BLA BLA BLA BLA BLA BLA BLA BLA BLA BLA BLA BLA 
BLA BLA BLA BLA BLA BLA BLA BLA BLA BLA BLA BLA BLA BLA BLA BLA BLA BLA BLA BLA 
BLA BLA BLA BLA BLA BLA BLA BLA BLA BLA BLA BLA BLA BLA BLA BLA BLA BLA BLA BLA 
BLA BLA BLA BLA BLA BLA BLA BLA BLA BLA BLA BLA BLA BLA BLA BLA BLA BLA BLA BLA 
BLA BLA BLA BLA BLA BLA BLA BLA BLA BLA BLA BLA BLA BLA BLA BLA BLA BLA BLA BLA 
BLA BLA BLA BLA BLA BLA BLA BLA BLA BLA BLA BLA BLA BLA BLA BLA BLA BLA BLA BLA 
BLA BLA BLA BLA BLA BLA BLA BLA BLA BLA BLA BLA BLA BLA BLA BLA BLA BLA BLA BLA 
BLA BLA BLA BLA BLA BLA BLA BLA BLA BLA BLA BLA BLA BLA BLA BLA BLA BLA BLA BLA 
BLA BLA BLA BLA BLA BLA BLA BLA BLA BLA BLA BLA BLA BLA BLA BLA BLA BLA BLA BLA 
BLA BLA BLA BLA BLA BLA BLA BLA BLA BLA BLA BLA BLA BLA BLA BLA BLA BLA BLA BLA 
BLA BLA BLA BLA BLA BLA BLA BLA BLA BLA BLA BLA BLA BLA BLA BLA BLA BLA BLA BLA 
BLA BLA BLA BLA BLA BLA BLA BLA BLA BLA BLA BLA BLA BLA BLA BLA BLA BLA BLA BLA 
BLA BLA BLA BLA BLA BLA BLA BLA BLA BLA BLA BLA BLA BLA BLA BLA BLA BLA BLA BLA 
BLA BLA BLA BLA BLA BLA BLA BLA BLA BLA BLA BLA BLA BLA BLA BLA BLA BLA BLA BLA 
BLA BLA BLA BLA BLA BLA BLA BLA BLA BLA BLA BLA BLA BLA BLA BLA BLA BLA BLA BLA 
BLA BLA BLA BLA BLA BLA BLA BLA BLA BLA BLA BLA BLA BLA BLA BLA BLA BLA BLA BLA 
BLA BLA BLA BLA BLA BLA BLA BLA BLA BLA BLA BLA BLA BLA BLA BLA BLA BLA BLA BLA 
BLA BLA BLA BLA BLA BLA BLA BLA BLA BLA BLA BLA BLA BLA BLA BLA BLA BLA BLA BLA 
BLA BLA BLA BLA BLA BLA BLA BLA BLA BLA BLA BLA BLA BLA BLA BLA BLA BLA BLA BLA 
BLA BLA BLA BLA BLA BLA BLA BLA BLA BLA BLA BLA BLA BLA BLA BLA BLA BLA BLA BLA 
BLA BLA BLA BLA BLA BLA BLA BLA BLA BLA BLA BLA BLA BLA BLA BLA BLA BLA BLA BLA 
BLA BLA BLA BLA BLA BLA BLA BLA BLA BLA BLA BLA BLA BLA BLA BLA BLA BLA BLA BLA 
BLA BLA BLA BLA BLA BLA BLA BLA BLA BLA BLA BLA BLA BLA BLA BLA BLA BLA BLA BLA 
BLA BLA BLA BLA BLA BLA BLA BLA BLA BLA BLA BLA BLA BLA BLA BLA BLA BLA BLA BLA 
BLA BLA BLA BLA BLA BLA BLA BLA BLA BLA BLA BLA BLA BLA BLA BLA BLA BLA BLA BLA 
BLA BLA BLA BLA BLA BLA BLA BLA BLA BLA BLA BLA BLA BLA BLA BLA BLA BLA BLA BLA 
BLA BLA BLA BLA BLA BLA BLA BLA BLA BLA BLA BLA BLA BLA BLA BLA BLA BLA BLA BLA 
BLA BLA BLA BLA BLA BLA BLA BLA BLA BLA BLA BLA BLA BLA BLA BLA BLA BLA BLA BLA 
BLA BLA BLA BLA BLA BLA BLA BLA BLA BLA BLA BLA BLA BLA BLA BLA BLA BLA BLA BLA 
BLA BLA BLA BLA BLA BLA BLA BLA BLA BLA BLA BLA BLA BLA BLA BLA BLA BLA BLA BLA 
BLA BLA BLA BLA BLA BLA BLA BLA BLA BLA BLA BLA BLA BLA BLA BLA BLA BLA BLA BLA 
BLA BLA BLA BLA BLA BLA BLA BLA BLA BLA BLA BLA BLA BLA BLA BLA BLA BLA BLA BLA 
BLA BLA BLA BLA BLA BLA BLA BLA BLA BLA BLA BLA BLA BLA BLA BLA BLA BLA BLA BLA 
BLA BLA BLA BLA BLA BLA BLA BLA BLA BLA BLA BLA BLA BLA BLA BLA BLA BLA BLA BLA 
BLA BLA BLA BLA BLA BLA BLA BLA BLA BLA BLA BLA BLA BLA BLA BLA BLA BLA BLA BLA 
BLA BLA BLA BLA BLA BLA BLA BLA BLA BLA BLA BLA BLA BLA BLA BLA BLA BLA BLA BLA 
BLA BLA BLA BLA BLA BLA BLA BLA BLA BLA BLA BLA BLA BLA BLA BLA BLA BLA BLA BLA 
BLA BLA BLA BLA BLA BLA BLA BLA BLA BLA BLA BLA BLA BLA BLA BLA BLA BLA BLA BLA 
BLA BLA BLA BLA BLA BLA BLA BLA BLA BLA BLA BLA BLA BLA BLA BLA BLA BLA BLA BLA 
BLA BLA BLA BLA BLA BLA BLA BLA BLA BLA BLA BLA BLA BLA BLA BLA BLA BLA BLA BLA 
BLA BLA BLA BLA BLA BLA BLA BLA BLA BLA BLA BLA BLA BLA BLA BLA BLA BLA BLA BLA 
BLA BLA BLA BLA BLA BLA BLA BLA BLA BLA BLA BLA BLA BLA BLA BLA BLA BLA BLA BLA 
BLA BLA BLA BLA BLA BLA BLA BLA BLA BLA BLA BLA BLA BLA BLA BLA BLA BLA BLA BLA 
BLA BLA BLA BLA BLA BLA BLA BLA BLA BLA BLA BLA BLA BLA BLA BLA BLA BLA BLA BLA 
BLA BLA BLA BLA BLA BLA BLA BLA BLA BLA BLA BLA BLA BLA BLA BLA BLA BLA BLA BLA 
BLA BLA BLA BLA BLA BLA BLA BLA BLA BLA BLA BLA BLA BLA BLA BLA BLA BLA BLA BLA 
BLA BLA BLA BLA BLA BLA BLA BLA BLA BLA BLA BLA BLA BLA BLA BLA BLA BLA BLA BLA 
BLA BLA BLA BLA BLA BLA BLA BLA BLA BLA BLA BLA BLA BLA BLA BLA BLA BLA BLA BLA 
BLA BLA BLA BLA BLA BLA BLA BLA BLA BLA BLA BLA BLA BLA BLA BLA BLA BLA BLA BLA 
BLA BLA BLA BLA BLA BLA BLA BLA BLA BLA BLA BLA BLA BLA BLA BLA BLA BLA BLA BLA 
BLA BLA BLA BLA BLA BLA BLA BLA BLA BLA BLA BLA BLA BLA BLA BLA BLA BLA BLA BLA 
BLA BLA BLA BLA BLA BLA BLA BLA BLA BLA BLA BLA BLA BLA BLA BLA BLA BLA BLA BLA 
BLA BLA BLA BLA BLA BLA BLA BLA BLA BLA BLA BLA BLA BLA BLA BLA BLA BLA BLA BLA 
BLA BLA BLA BLA BLA BLA BLA BLA BLA BLA BLA BLA BLA BLA BLA BLA BLA BLA BLA BLA 
BLA BLA BLA BLA BLA BLA BLA BLA BLA BLA BLA BLA BLA BLA BLA BLA BLA BLA BLA BLA 
BLA BLA BLA BLA BLA BLA BLA BLA BLA BLA BLA BLA BLA BLA BLA BLA BLA BLA BLA BLA 
BLA BLA BLA BLA BLA BLA BLA BLA BLA BLA BLA BLA BLA BLA BLA BLA BLA BLA BLA BLA 
BLA BLA BLA BLA BLA BLA BLA BLA BLA BLA BLA BLA BLA BLA BLA BLA BLA BLA BLA BLA 
BLA BLA BLA BLA BLA BLA BLA BLA BLA BLA BLA BLA BLA BLA BLA BLA BLA BLA BLA BLA 
BLA BLA BLA BLA BLA BLA BLA BLA BLA BLA BLA BLA BLA BLA BLA BLA BLA BLA BLA BLA 
BLA BLA BLA BLA BLA BLA BLA BLA BLA BLA BLA BLA BLA BLA BLA BLA BLA BLA BLA BLA 
BLA BLA BLA BLA BLA BLA BLA BLA BLA BLA BLA BLA BLA BLA BLA BLA BLA BLA BLA BLA 
BLA BLA BLA BLA BLA BLA BLA BLA BLA BLA BLA BLA BLA BLA BLA BLA BLA BLA BLA BLA 
BLA BLA BLA BLA BLA BLA BLA BLA BLA BLA BLA BLA BLA BLA BLA BLA BLA BLA BLA BLA 
BLA BLA BLA BLA BLA BLA BLA BLA BLA BLA BLA BLA BLA BLA BLA BLA BLA BLA BLA BLA 
BLA BLA BLA BLA BLA BLA BLA BLA BLA BLA BLA BLA BLA BLA BLA BLA BLA BLA BLA BLA 
BLA BLA BLA BLA BLA BLA BLA BLA BLA BLA BLA BLA BLA BLA BLA BLA BLA BLA BLA BLA 
BLA BLA BLA BLA BLA BLA BLA BLA BLA BLA BLA BLA BLA BLA BLA BLA BLA BLA BLA BLA 
BLA BLA BLA BLA BLA BLA BLA BLA BLA BLA BLA BLA BLA BLA BLA BLA BLA BLA BLA BLA 
BLA BLA BLA BLA BLA BLA BLA BLA BLA BLA BLA BLA BLA BLA BLA BLA BLA BLA BLA BLA 
BLA BLA BLA BLA BLA BLA BLA BLA BLA BLA BLA BLA BLA BLA BLA BLA BLA BLA BLA BLA 
BLA BLA BLA BLA BLA BLA BLA BLA BLA BLA BLA BLA BLA BLA BLA BLA BLA BLA BLA BLA 
BLA BLA BLA BLA BLA BLA BLA BLA BLA BLA BLA BLA BLA BLA BLA BLA BLA BLA BLA BLA 
BLA BLA BLA BLA BLA BLA BLA BLA BLA BLA BLA BLA BLA BLA BLA BLA BLA BLA BLA BLA 
BLA BLA BLA BLA BLA BLA BLA BLA BLA BLA BLA BLA BLA BLA BLA BLA BLA BLA BLA BLA 
BLA BLA BLA BLA BLA BLA BLA BLA BLA BLA BLA BLA BLA BLA BLA BLA BLA BLA BLA BLA 
BLA BLA BLA BLA BLA BLA BLA BLA BLA BLA BLA BLA BLA BLA BLA BLA BLA BLA BLA BLA 
BLA BLA BLA BLA BLA BLA BLA BLA BLA BLA BLA BLA BLA BLA BLA BLA BLA BLA BLA BLA 
BLA BLA BLA BLA BLA BLA BLA BLA BLA BLA BLA BLA BLA BLA BLA BLA BLA BLA BLA BLA 
BLA BLA BLA BLA BLA BLA BLA BLA BLA BLA BLA BLA BLA BLA BLA BLA BLA BLA BLA BLA 
BLA BLA BLA BLA BLA BLA BLA BLA BLA BLA BLA BLA BLA BLA BLA BLA BLA BLA BLA BLA 
BLA BLA BLA BLA BLA BLA BLA BLA BLA BLA BLA BLA BLA BLA BLA BLA BLA BLA BLA BLA 
BLA BLA BLA BLA BLA BLA BLA BLA BLA BLA BLA BLA BLA BLA BLA BLA BLA BLA BLA BLA 
BLA BLA BLA BLA BLA BLA BLA BLA BLA BLA BLA BLA BLA BLA BLA BLA BLA BLA BLA BLA 
BLA BLA BLA BLA BLA BLA BLA BLA BLA BLA BLA BLA BLA BLA BLA BLA BLA BLA BLA BLA 
BLA BLA BLA BLA BLA BLA BLA BLA BLA BLA BLA BLA BLA BLA BLA BLA BLA BLA BLA BLA 
BLA BLA BLA BLA BLA BLA BLA BLA BLA BLA BLA BLA BLA BLA BLA BLA BLA BLA BLA BLA 
BLA BLA BLA BLA BLA BLA BLA BLA BLA BLA BLA BLA BLA BLA BLA BLA BLA BLA BLA BLA 
BLA BLA BLA BLA BLA BLA BLA BLA BLA BLA BLA BLA BLA BLA BLA BLA BLA BLA BLA BLA 
BLA BLA BLA BLA BLA BLA BLA BLA BLA BLA BLA BLA BLA BLA BLA BLA BLA BLA BLA BLA 
BLA BLA BLA BLA BLA BLA BLA BLA BLA BLA BLA BLA BLA BLA BLA BLA BLA BLA BLA BLA 
BLA BLA BLA BLA BLA BLA BLA BLA BLA BLA BLA BLA BLA BLA BLA BLA BLA BLA BLA BLA 
BLA BLA BLA BLA BLA BLA BLA BLA BLA BLA BLA BLA BLA BLA BLA BLA BLA BLA BLA BLA 
BLA BLA BLA BLA BLA BLA BLA BLA BLA BLA BLA BLA BLA BLA BLA BLA BLA BLA BLA BLA 
BLA BLA BLA BLA BLA BLA BLA BLA BLA BLA BLA BLA BLA BLA BLA BLA BLA BLA BLA BLA 
BLA BLA BLA BLA BLA BLA BLA BLA BLA BLA BLA BLA BLA BLA BLA BLA BLA BLA BLA BLA 
BLA BLA BLA BLA BLA BLA BLA BLA BLA BLA BLA BLA BLA BLA BLA BLA BLA BLA BLA BLA 
BLA BLA BLA BLA BLA BLA BLA BLA BLA BLA BLA BLA BLA BLA BLA BLA BLA BLA BLA BLA 
BLA BLA BLA BLA BLA BLA BLA BLA BLA BLA BLA BLA BLA BLA BLA BLA BLA BLA BLA BLA 
BLA BLA BLA BLA BLA BLA BLA BLA BLA BLA BLA BLA BLA BLA BLA BLA BLA BLA BLA BLA 
BLA BLA BLA BLA BLA BLA BLA BLA BLA BLA BLA BLA BLA BLA BLA BLA BLA BLA BLA BLA 
BLA BLA BLA BLA BLA BLA BLA BLA BLA BLA BLA BLA BLA BLA BLA BLA BLA BLA BLA BLA 
BLA BLA BLA BLA BLA BLA BLA BLA BLA BLA BLA BLA BLA BLA BLA BLA BLA BLA BLA BLA 
BLA BLA BLA BLA BLA BLA BLA BLA BLA BLA BLA BLA BLA BLA BLA BLA BLA BLA BLA BLA 
BLA BLA BLA BLA BLA BLA BLA BLA BLA BLA BLA BLA BLA BLA BLA BLA BLA BLA BLA BLA 
BLA BLA BLA BLA BLA BLA BLA BLA BLA BLA BLA BLA BLA BLA BLA BLA BLA BLA BLA BLA 
BLA BLA BLA BLA BLA BLA BLA BLA BLA BLA BLA BLA BLA BLA BLA BLA BLA BLA BLA BLA 
BLA BLA BLA BLA BLA BLA BLA BLA BLA BLA BLA BLA BLA BLA BLA BLA BLA BLA BLA BLA 
BLA BLA BLA BLA BLA BLA BLA BLA BLA BLA BLA BLA BLA BLA BLA BLA BLA BLA BLA BLA 
BLA BLA BLA BLA BLA BLA BLA BLA BLA BLA BLA BLA BLA BLA BLA BLA BLA BLA BLA BLA 
BLA BLA BLA BLA BLA BLA BLA BLA BLA BLA BLA BLA BLA BLA BLA BLA BLA BLA BLA BLA 
BLA BLA BLA BLA BLA BLA BLA BLA BLA BLA BLA BLA BLA BLA BLA BLA BLA BLA BLA BLA 
BLA BLA BLA BLA BLA BLA BLA BLA BLA BLA BLA BLA BLA BLA BLA BLA BLA BLA BLA BLA 
BLA BLA BLA BLA BLA BLA BLA BLA BLA BLA BLA BLA BLA BLA BLA BLA BLA BLA BLA BLA 
BLA BLA BLA BLA BLA BLA BLA BLA BLA BLA BLA BLA BLA BLA BLA BLA BLA BLA BLA BLA 
BLA BLA BLA BLA BLA BLA BLA BLA BLA BLA BLA BLA BLA BLA BLA BLA BLA BLA BLA BLA 
BLA BLA BLA BLA BLA BLA BLA BLA BLA BLA BLA BLA BLA BLA BLA BLA BLA BLA BLA BLA 
BLA BLA BLA BLA BLA BLA BLA BLA BLA BLA BLA BLA BLA BLA BLA BLA BLA BLA BLA BLA 
BLA BLA BLA BLA BLA BLA BLA BLA BLA BLA BLA BLA BLA BLA BLA BLA BLA BLA BLA BLA 
BLA BLA BLA BLA BLA BLA BLA BLA BLA BLA BLA BLA BLA BLA BLA BLA BLA BLA BLA BLA 
BLA BLA BLA BLA BLA BLA BLA BLA BLA BLA BLA BLA BLA BLA BLA BLA BLA BLA BLA BLA 
BLA BLA BLA BLA BLA BLA BLA BLA BLA BLA BLA BLA BLA BLA BLA BLA BLA BLA BLA BLA 
BLA BLA BLA BLA BLA BLA BLA BLA BLA BLA BLA BLA BLA BLA BLA BLA BLA BLA BLA BLA 
BLA BLA BLA BLA BLA BLA BLA BLA BLA BLA BLA BLA BLA BLA BLA BLA BLA BLA BLA BLA 
BLA BLA BLA BLA BLA BLA BLA BLA BLA BLA BLA BLA BLA BLA BLA BLA BLA BLA BLA BLA 
BLA BLA BLA BLA BLA BLA BLA BLA BLA BLA BLA BLA BLA BLA BLA BLA BLA BLA BLA BLA 
BLA BLA BLA BLA BLA BLA BLA BLA BLA BLA BLA BLA BLA BLA BLA BLA BLA BLA BLA BLA 
BLA BLA BLA BLA BLA BLA BLA BLA BLA BLA BLA BLA BLA BLA BLA BLA BLA BLA BLA BLA 
BLA BLA BLA BLA BLA BLA BLA BLA BLA BLA BLA BLA BLA BLA BLA BLA BLA BLA BLA BLA 
BLA BLA BLA BLA BLA BLA BLA BLA BLA BLA BLA BLA BLA BLA BLA BLA BLA BLA BLA BLA 
BLA BLA BLA BLA BLA BLA BLA BLA BLA BLA BLA BLA BLA BLA BLA BLA BLA BLA BLA BLA 
BLA BLA BLA BLA BLA BLA BLA BLA BLA BLA BLA BLA BLA BLA BLA BLA BLA BLA BLA BLA 
BLA BLA BLA BLA BLA BLA BLA BLA BLA BLA BLA BLA BLA BLA BLA BLA BLA BLA BLA BLA 
BLA BLA BLA BLA BLA BLA BLA BLA BLA BLA BLA BLA BLA BLA BLA BLA BLA BLA BLA BLA 
BLA BLA BLA BLA BLA BLA BLA BLA BLA BLA BLA BLA BLA BLA BLA BLA BLA BLA BLA BLA 
BLA BLA BLA BLA BLA BLA BLA BLA BLA BLA BLA BLA BLA BLA BLA BLA BLA BLA BLA BLA 
BLA BLA BLA BLA BLA BLA BLA BLA BLA BLA BLA BLA BLA BLA BLA BLA BLA BLA BLA BLA 
BLA BLA BLA BLA BLA BLA BLA BLA BLA BLA BLA BLA BLA BLA BLA BLA BLA BLA BLA BLA 
BLA BLA BLA BLA BLA BLA BLA BLA BLA BLA BLA BLA BLA BLA BLA BLA BLA BLA BLA BLA 
BLA BLA BLA BLA BLA BLA BLA BLA BLA BLA BLA BLA BLA BLA BLA BLA BLA BLA BLA BLA 
BLA BLA BLA BLA BLA BLA BLA BLA BLA BLA BLA BLA BLA BLA BLA BLA BLA BLA BLA BLA 
BLA BLA BLA BLA BLA BLA BLA BLA BLA BLA BLA BLA BLA BLA BLA BLA BLA BLA BLA BLA 
BLA BLA BLA BLA BLA BLA BLA BLA BLA BLA BLA BLA BLA BLA BLA BLA BLA BLA BLA BLA 
BLA BLA BLA BLA BLA BLA BLA BLA BLA BLA BLA BLA BLA BLA BLA BLA BLA BLA BLA BLA 
BLA BLA BLA BLA BLA BLA BLA BLA BLA BLA BLA BLA BLA BLA BLA BLA BLA BLA BLA BLA 
BLA BLA BLA BLA BLA BLA BLA BLA BLA BLA BLA BLA BLA BLA BLA BLA BLA BLA BLA BLA 
BLA BLA BLA BLA BLA BLA BLA BLA BLA BLA BLA BLA BLA BLA BLA BLA BLA BLA BLA BLA 
BLA BLA BLA BLA BLA BLA BLA BLA BLA BLA BLA BLA BLA BLA BLA BLA BLA BLA BLA BLA 
BLA BLA BLA BLA BLA BLA BLA BLA BLA BLA BLA BLA BLA BLA BLA BLA BLA BLA BLA BLA 
BLA BLA BLA BLA BLA BLA BLA BLA BLA BLA BLA BLA BLA BLA BLA BLA BLA BLA BLA BLA 
BLA BLA BLA BLA BLA BLA BLA BLA BLA BLA BLA BLA BLA BLA BLA BLA BLA BLA BLA BLA 
BLA BLA BLA BLA BLA BLA BLA BLA BLA BLA BLA BLA BLA BLA BLA BLA BLA BLA BLA BLA 
BLA BLA BLA BLA BLA BLA BLA BLA BLA BLA BLA BLA BLA BLA BLA BLA BLA BLA BLA BLA 
BLA BLA BLA BLA BLA BLA BLA BLA BLA BLA BLA BLA BLA BLA BLA BLA BLA BLA BLA BLA 
BLA BLA BLA BLA BLA BLA BLA BLA BLA BLA BLA BLA BLA BLA BLA BLA BLA BLA BLA BLA 
BLA BLA BLA BLA BLA BLA BLA BLA BLA BLA BLA BLA BLA BLA BLA BLA BLA BLA BLA BLA 
BLA BLA BLA BLA BLA BLA BLA BLA BLA BLA BLA BLA BLA BLA BLA BLA BLA BLA BLA BLA 
BLA BLA BLA BLA BLA BLA BLA BLA BLA BLA BLA BLA BLA BLA BLA BLA BLA BLA BLA BLA 
BLA BLA BLA BLA BLA BLA BLA BLA BLA BLA BLA BLA BLA BLA BLA BLA BLA BLA BLA BLA 
BLA BLA BLA BLA BLA BLA BLA BLA BLA BLA BLA BLA BLA BLA BLA BLA BLA BLA BLA BLA 
BLA BLA BLA BLA BLA BLA BLA BLA BLA BLA BLA BLA BLA BLA BLA BLA BLA BLA BLA BLA 
BLA BLA BLA BLA BLA BLA BLA BLA BLA BLA BLA BLA BLA BLA BLA BLA BLA BLA BLA BLA 
BLA BLA BLA BLA BLA BLA BLA BLA BLA BLA BLA BLA BLA BLA BLA BLA BLA BLA BLA BLA 
BLA BLA BLA BLA BLA BLA BLA BLA BLA BLA BLA BLA BLA BLA BLA BLA BLA BLA BLA BLA 
BLA BLA BLA BLA BLA BLA BLA BLA BLA BLA BLA BLA BLA BLA BLA BLA BLA BLA BLA BLA 
BLA BLA BLA BLA BLA BLA BLA BLA BLA BLA BLA BLA BLA BLA BLA BLA BLA BLA BLA BLA 
BLA BLA BLA BLA BLA BLA BLA BLA BLA BLA BLA BLA BLA BLA BLA BLA BLA BLA BLA BLA 
BLA BLA BLA BLA BLA BLA BLA BLA BLA BLA BLA BLA BLA BLA BLA BLA BLA BLA BLA BLA 
BLA BLA BLA BLA BLA BLA BLA BLA BLA BLA BLA BLA BLA BLA BLA BLA BLA BLA BLA BLA 
BLA BLA BLA BLA BLA BLA BLA BLA BLA BLA BLA BLA BLA BLA BLA BLA BLA BLA BLA BLA 
BLA BLA BLA BLA BLA BLA BLA BLA BLA BLA BLA BLA BLA BLA BLA BLA BLA BLA BLA BLA 
BLA BLA BLA BLA BLA BLA BLA BLA BLA BLA BLA BLA BLA BLA BLA BLA BLA BLA BLA BLA 
BLA BLA BLA BLA BLA BLA BLA BLA BLA BLA BLA BLA BLA BLA BLA BLA BLA BLA BLA BLA 
BLA BLA BLA BLA BLA BLA BLA BLA BLA BLA BLA BLA BLA BLA BLA BLA BLA BLA BLA BLA 
BLA BLA BLA BLA BLA BLA BLA BLA BLA BLA BLA BLA BLA BLA BLA BLA BLA BLA BLA BLA 
BLA BLA BLA BLA BLA BLA BLA BLA BLA BLA BLA BLA BLA BLA BLA BLA BLA BLA BLA BLA 
BLA BLA BLA BLA BLA BLA BLA BLA BLA BLA BLA BLA BLA BLA BLA BLA BLA BLA BLA BLA 
BLA BLA BLA BLA BLA BLA BLA BLA BLA BLA BLA BLA BLA BLA BLA BLA BLA BLA BLA BLA 
BLA BLA BLA BLA BLA BLA BLA BLA BLA BLA BLA BLA BLA BLA BLA BLA BLA BLA BLA BLA 
BLA BLA BLA BLA BLA BLA BLA BLA BLA BLA BLA BLA BLA BLA BLA BLA BLA BLA BLA BLA 
BLA BLA BLA BLA BLA BLA BLA BLA BLA BLA BLA BLA BLA BLA BLA BLA BLA BLA BLA BLA 
BLA BLA BLA BLA BLA BLA BLA BLA BLA BLA BLA BLA BLA BLA BLA BLA BLA BLA BLA BLA 
BLA BLA BLA BLA BLA BLA BLA BLA BLA BLA BLA BLA BLA BLA BLA BLA BLA BLA BLA BLA 
BLA BLA BLA BLA BLA BLA BLA BLA BLA BLA BLA BLA BLA BLA BLA BLA BLA BLA BLA BLA 
BLA BLA BLA BLA BLA BLA BLA BLA BLA BLA BLA BLA BLA BLA BLA BLA BLA BLA BLA BLA 
BLA BLA BLA BLA BLA BLA BLA BLA BLA BLA BLA BLA BLA BLA BLA BLA BLA BLA BLA BLA 
BLA BLA BLA BLA BLA BLA BLA BLA BLA BLA BLA BLA BLA BLA BLA BLA BLA BLA BLA BLA 
BLA BLA BLA BLA BLA BLA BLA BLA BLA BLA BLA BLA BLA BLA BLA BLA BLA BLA BLA BLA 
BLA BLA BLA BLA BLA BLA BLA BLA BLA BLA BLA BLA BLA BLA BLA BLA BLA BLA BLA BLA 
BLA BLA BLA BLA BLA BLA BLA BLA BLA BLA BLA BLA BLA BLA BLA BLA BLA BLA BLA BLA 
BLA BLA BLA BLA BLA BLA BLA BLA BLA BLA BLA BLA BLA BLA BLA BLA BLA BLA BLA BLA 
BLA BLA BLA BLA BLA BLA BLA BLA BLA BLA BLA BLA BLA BLA BLA BLA BLA BLA BLA BLA 
BLA BLA BLA BLA BLA BLA BLA BLA BLA BLA BLA BLA BLA BLA BLA BLA BLA BLA BLA BLA 
BLA BLA BLA BLA BLA BLA BLA BLA BLA BLA BLA BLA BLA BLA BLA BLA BLA BLA BLA BLA 
BLA BLA BLA BLA BLA BLA BLA BLA BLA BLA BLA BLA BLA BLA BLA BLA BLA BLA BLA BLA 
BLA BLA BLA BLA BLA BLA BLA BLA BLA BLA BLA BLA BLA BLA BLA BLA BLA BLA BLA BLA 
BLA BLA BLA BLA BLA BLA BLA BLA BLA BLA BLA BLA BLA BLA BLA BLA BLA BLA BLA BLA 
BLA BLA BLA BLA BLA BLA BLA BLA BLA BLA BLA BLA BLA BLA BLA BLA BLA BLA BLA BLA 
BLA BLA BLA BLA BLA BLA BLA BLA BLA BLA BLA BLA BLA BLA BLA BLA BLA BLA BLA BLA 
BLA BLA BLA BLA BLA BLA BLA BLA BLA BLA BLA BLA BLA BLA BLA BLA BLA BLA BLA BLA 
BLA BLA BLA BLA BLA BLA BLA BLA BLA BLA BLA BLA BLA BLA BLA BLA BLA BLA BLA BLA 
BLA BLA BLA BLA BLA BLA BLA BLA BLA BLA BLA BLA BLA BLA BLA BLA BLA BLA BLA BLA 
BLA BLA BLA BLA BLA BLA BLA BLA BLA BLA BLA BLA BLA BLA BLA BLA BLA BLA BLA BLA 
BLA BLA BLA BLA BLA BLA BLA BLA BLA BLA BLA BLA BLA BLA BLA BLA BLA BLA BLA BLA 
BLA BLA BLA BLA BLA BLA BLA BLA BLA BLA BLA BLA BLA BLA BLA BLA BLA BLA BLA BLA 
BLA BLA BLA BLA BLA BLA BLA BLA BLA BLA BLA BLA BLA BLA BLA BLA BLA BLA BLA BLA 
BLA BLA BLA BLA BLA BLA BLA BLA BLA BLA BLA BLA BLA BLA BLA BLA BLA BLA BLA BLA 
BLA BLA BLA BLA BLA BLA BLA BLA BLA BLA BLA BLA BLA BLA BLA BLA BLA BLA BLA BLA 
BLA BLA BLA BLA BLA BLA BLA BLA BLA BLA BLA BLA BLA BLA BLA BLA BLA BLA BLA BLA 
BLA BLA BLA BLA BLA BLA BLA BLA BLA BLA BLA BLA BLA BLA BLA BLA BLA BLA BLA BLA 
BLA BLA BLA BLA BLA BLA BLA BLA BLA BLA BLA BLA BLA BLA BLA BLA BLA BLA BLA BLA 
BLA BLA BLA BLA BLA BLA BLA BLA BLA BLA BLA BLA BLA BLA BLA BLA BLA BLA BLA BLA 
BLA BLA BLA BLA BLA BLA BLA BLA BLA BLA BLA BLA BLA BLA BLA BLA BLA BLA BLA BLA 
BLA BLA BLA BLA BLA BLA BLA BLA BLA BLA BLA BLA BLA BLA BLA BLA BLA BLA BLA BLA 
BLA BLA BLA BLA BLA BLA BLA BLA BLA BLA BLA BLA BLA BLA BLA BLA BLA BLA BLA BLA 
BLA BLA BLA BLA BLA BLA BLA BLA BLA BLA BLA BLA BLA BLA BLA BLA BLA BLA BLA BLA 
BLA BLA BLA BLA BLA BLA BLA BLA BLA BLA BLA BLA BLA BLA BLA BLA BLA BLA BLA BLA 
BLA BLA BLA BLA BLA BLA BLA BLA BLA BLA BLA BLA BLA BLA BLA BLA BLA BLA BLA BLA 
BLA BLA BLA BLA BLA BLA BLA BLA BLA BLA BLA BLA BLA BLA BLA BLA BLA BLA BLA BLA 
BLA BLA BLA BLA BLA BLA BLA BLA BLA BLA BLA BLA BLA BLA BLA BLA BLA BLA BLA BLA 
BLA BLA BLA BLA BLA BLA BLA BLA BLA BLA BLA BLA BLA BLA BLA BLA BLA BLA BLA BLA 
BLA BLA BLA BLA BLA BLA BLA BLA BLA BLA BLA BLA BLA BLA BLA BLA BLA BLA BLA BLA 
BLA BLA BLA BLA BLA BLA BLA BLA BLA BLA BLA BLA BLA BLA BLA BLA BLA BLA BLA BLA 
BLA BLA BLA BLA BLA BLA BLA BLA BLA BLA BLA BLA BLA BLA BLA BLA BLA BLA BLA BLA 
BLA BLA BLA BLA BLA BLA BLA BLA BLA BLA BLA BLA BLA BLA BLA BLA BLA BLA BLA BLA 
BLA BLA BLA BLA BLA BLA BLA BLA BLA BLA BLA BLA BLA BLA BLA BLA BLA BLA BLA BLA 
BLA BLA BLA BLA BLA BLA BLA BLA BLA BLA BLA BLA BLA BLA BLA BLA BLA BLA BLA BLA 
BLA BLA BLA BLA BLA BLA BLA BLA BLA BLA BLA BLA BLA BLA BLA BLA BLA BLA BLA BLA 
BLA BLA BLA BLA BLA BLA BLA BLA BLA BLA BLA BLA BLA BLA BLA BLA BLA BLA BLA BLA 
BLA BLA BLA BLA BLA BLA BLA BLA BLA BLA BLA BLA BLA BLA BLA BLA BLA BLA BLA BLA 
BLA BLA BLA BLA BLA BLA BLA BLA BLA BLA BLA BLA BLA BLA BLA BLA BLA BLA BLA BLA 
BLA BLA BLA BLA BLA BLA BLA BLA BLA BLA BLA BLA BLA BLA BLA BLA BLA BLA BLA BLA 
BLA BLA BLA BLA BLA BLA BLA BLA BLA BLA BLA BLA BLA BLA BLA BLA BLA BLA BLA BLA 
BLA BLA BLA BLA BLA BLA BLA BLA BLA BLA BLA BLA BLA BLA BLA BLA BLA BLA BLA BLA 
BLA BLA BLA BLA BLA BLA BLA BLA BLA BLA BLA BLA BLA BLA BLA BLA BLA BLA BLA BLA 
BLA BLA BLA BLA BLA BLA BLA BLA BLA BLA BLA BLA BLA BLA BLA BLA BLA BLA BLA BLA 
BLA BLA BLA BLA BLA BLA BLA BLA BLA BLA BLA BLA BLA BLA BLA BLA BLA BLA BLA BLA 
BLA BLA BLA BLA BLA BLA BLA BLA BLA BLA BLA BLA BLA BLA BLA BLA BLA BLA BLA BLA 
BLA BLA BLA BLA BLA BLA BLA BLA BLA BLA BLA BLA BLA BLA BLA BLA BLA BLA BLA BLA 
BLA BLA BLA BLA BLA BLA BLA BLA BLA BLA BLA BLA BLA BLA BLA BLA BLA BLA BLA BLA 
BLA BLA BLA BLA BLA BLA BLA BLA BLA BLA BLA BLA BLA BLA BLA BLA BLA BLA BLA BLA 
BLA BLA BLA BLA BLA BLA BLA BLA BLA BLA BLA BLA BLA BLA BLA BLA BLA BLA BLA BLA 
BLA BLA BLA BLA BLA BLA BLA BLA BLA BLA BLA BLA BLA BLA BLA BLA BLA BLA BLA BLA 
BLA BLA BLA BLA BLA BLA BLA BLA BLA BLA BLA BLA BLA BLA BLA BLA BLA BLA BLA BLA 
BLA BLA BLA BLA BLA BLA BLA BLA BLA BLA BLA BLA BLA BLA BLA BLA BLA BLA BLA BLA 
BLA BLA BLA BLA BLA BLA BLA BLA BLA BLA BLA BLA BLA BLA BLA BLA BLA BLA BLA BLA 
BLA BLA BLA BLA BLA BLA BLA BLA BLA BLA BLA BLA BLA BLA BLA BLA BLA BLA BLA BLA 
BLA BLA BLA BLA BLA BLA BLA BLA BLA BLA BLA BLA BLA BLA BLA BLA BLA BLA BLA BLA 
BLA BLA BLA BLA BLA BLA BLA BLA BLA BLA BLA BLA BLA BLA BLA BLA BLA BLA BLA BLA 
BLA BLA BLA BLA BLA BLA BLA BLA BLA BLA BLA BLA BLA BLA BLA BLA BLA BLA BLA BLA 
BLA BLA BLA BLA BLA BLA BLA BLA BLA BLA BLA BLA BLA BLA BLA BLA BLA BLA BLA BLA 
BLA BLA BLA BLA BLA BLA BLA BLA BLA BLA BLA BLA BLA BLA BLA BLA BLA BLA BLA BLA 
BLA BLA BLA BLA BLA BLA BLA BLA BLA BLA BLA BLA BLA BLA BLA BLA BLA BLA BLA BLA 
BLA BLA BLA BLA BLA BLA BLA BLA BLA BLA BLA BLA BLA BLA BLA BLA BLA BLA BLA BLA 
BLA BLA BLA BLA BLA BLA BLA BLA BLA BLA BLA BLA BLA BLA BLA BLA BLA BLA BLA BLA 
BLA BLA BLA BLA BLA BLA BLA BLA BLA BLA BLA BLA BLA BLA BLA BLA BLA BLA BLA BLA 
BLA BLA BLA BLA BLA BLA BLA BLA BLA BLA BLA BLA BLA BLA BLA BLA BLA BLA BLA BLA 
BLA BLA BLA BLA BLA BLA BLA BLA BLA BLA BLA BLA BLA BLA BLA BLA BLA BLA BLA BLA 
BLA BLA BLA BLA BLA BLA BLA BLA BLA BLA BLA BLA BLA BLA BLA BLA BLA BLA BLA BLA 
BLA BLA BLA BLA BLA BLA BLA BLA BLA BLA BLA BLA BLA BLA BLA BLA BLA BLA BLA BLA 
BLA BLA BLA BLA BLA BLA BLA BLA BLA BLA BLA BLA BLA BLA BLA BLA BLA BLA BLA BLA 
BLA BLA BLA BLA BLA BLA BLA BLA BLA BLA BLA BLA BLA BLA BLA BLA BLA BLA BLA BLA 
BLA BLA BLA BLA BLA BLA BLA BLA BLA BLA BLA BLA BLA BLA BLA BLA BLA BLA BLA BLA 
BLA BLA BLA BLA BLA BLA BLA BLA BLA BLA BLA BLA BLA BLA BLA BLA BLA BLA BLA BLA 
BLA BLA BLA BLA BLA BLA BLA BLA BLA BLA BLA BLA BLA BLA BLA BLA BLA BLA BLA BLA 
BLA BLA BLA BLA BLA BLA BLA BLA BLA BLA BLA BLA BLA BLA BLA BLA BLA BLA BLA BLA 
BLA BLA BLA BLA BLA BLA BLA BLA BLA BLA BLA BLA BLA BLA BLA BLA BLA BLA BLA BLA 
BLA BLA BLA BLA BLA BLA BLA BLA BLA BLA BLA BLA BLA BLA BLA BLA BLA BLA BLA BLA 
BLA BLA BLA BLA BLA BLA BLA BLA BLA BLA BLA BLA BLA BLA BLA BLA BLA BLA BLA BLA 
BLA BLA BLA BLA BLA BLA BLA BLA BLA BLA BLA BLA BLA BLA BLA BLA BLA BLA BLA BLA 
BLA BLA BLA BLA BLA BLA BLA BLA BLA BLA BLA BLA BLA BLA BLA BLA BLA BLA BLA BLA 
BLA BLA BLA BLA BLA BLA BLA BLA BLA BLA BLA BLA BLA BLA BLA BLA BLA BLA BLA BLA 
BLA BLA BLA BLA BLA BLA BLA BLA BLA BLA BLA BLA BLA BLA BLA BLA BLA BLA BLA BLA 
BLA BLA BLA BLA BLA BLA BLA BLA BLA BLA BLA BLA BLA BLA BLA BLA BLA BLA BLA BLA 
BLA BLA BLA BLA BLA BLA BLA BLA BLA BLA BLA BLA BLA BLA BLA BLA BLA BLA BLA BLA 
BLA BLA BLA BLA BLA BLA BLA BLA BLA BLA BLA BLA BLA BLA BLA BLA BLA BLA BLA BLA 
BLA BLA BLA BLA BLA BLA BLA BLA BLA BLA BLA BLA BLA BLA BLA BLA BLA BLA BLA BLA 
BLA BLA BLA BLA BLA BLA BLA BLA BLA BLA BLA BLA BLA BLA BLA BLA BLA BLA BLA BLA 
BLA BLA BLA BLA BLA BLA BLA BLA BLA BLA BLA BLA BLA BLA BLA BLA BLA BLA BLA BLA 
BLA BLA BLA BLA BLA BLA BLA BLA BLA BLA BLA BLA BLA BLA BLA BLA BLA BLA BLA BLA 
BLA BLA BLA BLA BLA BLA BLA BLA BLA BLA BLA BLA BLA BLA BLA BLA BLA BLA BLA BLA 
BLA BLA BLA BLA BLA BLA BLA BLA BLA BLA BLA BLA BLA BLA BLA BLA BLA BLA BLA BLA 
BLA BLA BLA BLA BLA BLA BLA BLA BLA BLA BLA BLA BLA BLA BLA BLA BLA BLA BLA BLA 
BLA BLA BLA BLA BLA BLA BLA BLA BLA BLA BLA BLA BLA BLA BLA BLA BLA BLA BLA BLA 
BLA BLA BLA BLA BLA BLA BLA BLA BLA BLA BLA BLA BLA BLA BLA BLA BLA BLA BLA BLA 
BLA BLA BLA BLA BLA BLA BLA BLA BLA BLA BLA BLA BLA BLA BLA BLA BLA BLA BLA BLA 
BLA BLA BLA BLA BLA BLA BLA BLA BLA BLA BLA BLA BLA BLA BLA BLA BLA BLA BLA BLA 
BLA BLA BLA BLA BLA BLA BLA BLA BLA BLA BLA BLA BLA BLA BLA BLA BLA BLA BLA BLA 
BLA BLA BLA BLA BLA BLA BLA BLA BLA BLA BLA BLA BLA BLA BLA BLA BLA BLA BLA BLA 
BLA BLA BLA BLA BLA BLA BLA BLA BLA BLA BLA BLA BLA BLA BLA BLA BLA BLA BLA BLA 
BLA BLA BLA BLA BLA BLA BLA BLA BLA BLA BLA BLA BLA BLA BLA BLA BLA BLA BLA BLA 
BLA BLA BLA BLA BLA BLA BLA BLA BLA BLA BLA BLA BLA BLA BLA BLA BLA BLA BLA BLA 
BLA BLA BLA BLA BLA BLA BLA BLA BLA BLA BLA BLA BLA BLA BLA BLA BLA BLA BLA BLA 
BLA BLA BLA BLA BLA BLA BLA BLA BLA BLA BLA BLA BLA BLA BLA BLA BLA BLA BLA BLA 
BLA BLA BLA BLA BLA BLA BLA BLA BLA BLA BLA BLA BLA BLA BLA BLA BLA BLA BLA BLA 
BLA BLA BLA BLA BLA BLA BLA BLA BLA BLA BLA BLA BLA BLA BLA BLA BLA BLA BLA BLA 
BLA BLA BLA BLA BLA BLA BLA BLA BLA BLA BLA BLA BLA BLA BLA BLA BLA BLA BLA BLA 
BLA BLA BLA BLA BLA BLA BLA BLA BLA BLA BLA BLA BLA BLA BLA BLA BLA BLA BLA BLA 
BLA BLA BLA BLA BLA BLA BLA BLA BLA BLA BLA BLA BLA BLA BLA BLA BLA BLA BLA BLA 
BLA BLA BLA BLA BLA BLA BLA BLA BLA BLA BLA BLA BLA BLA BLA BLA BLA BLA BLA BLA 
BLA BLA BLA BLA BLA BLA BLA BLA BLA BLA BLA BLA BLA BLA BLA BLA BLA BLA BLA BLA 
BLA BLA BLA BLA BLA BLA BLA BLA BLA BLA BLA BLA BLA BLA BLA BLA BLA BLA BLA BLA 
BLA BLA BLA BLA BLA BLA BLA BLA BLA BLA BLA BLA BLA BLA BLA BLA BLA BLA BLA BLA 
BLA BLA BLA BLA BLA BLA BLA BLA BLA BLA BLA BLA BLA BLA BLA BLA BLA BLA BLA BLA 
BLA BLA BLA BLA BLA BLA BLA BLA BLA BLA BLA BLA BLA BLA BLA BLA BLA BLA BLA BLA 
BLA BLA BLA BLA BLA BLA BLA BLA BLA BLA BLA BLA BLA BLA BLA BLA BLA BLA BLA BLA 
BLA BLA BLA BLA BLA BLA BLA BLA BLA BLA BLA BLA BLA BLA BLA BLA BLA BLA BLA BLA 
BLA BLA BLA BLA BLA BLA BLA BLA BLA BLA BLA BLA BLA BLA BLA BLA BLA BLA BLA BLA 
BLA BLA BLA BLA BLA BLA BLA BLA BLA BLA BLA BLA BLA BLA BLA BLA BLA BLA BLA BLA 
BLA BLA BLA BLA BLA BLA BLA BLA BLA BLA BLA BLA BLA BLA BLA BLA BLA BLA BLA BLA 
BLA BLA BLA BLA BLA BLA BLA BLA BLA BLA BLA BLA BLA BLA BLA BLA BLA BLA BLA BLA 
BLA BLA BLA BLA BLA BLA BLA BLA BLA BLA BLA BLA BLA BLA BLA BLA BLA BLA BLA BLA 
BLA BLA BLA BLA BLA BLA BLA BLA BLA BLA BLA BLA BLA BLA BLA BLA BLA BLA BLA BLA 
BLA BLA BLA BLA BLA BLA BLA BLA BLA BLA BLA BLA BLA BLA BLA BLA BLA BLA BLA BLA 
BLA BLA BLA BLA BLA BLA BLA BLA BLA BLA BLA BLA BLA BLA BLA BLA BLA BLA BLA BLA 
BLA BLA BLA BLA BLA BLA BLA BLA BLA BLA BLA BLA BLA BLA BLA BLA BLA BLA BLA BLA 
BLA BLA BLA BLA BLA BLA BLA BLA BLA BLA BLA BLA BLA BLA BLA BLA BLA BLA BLA BLA 
BLA BLA BLA BLA BLA BLA BLA BLA BLA BLA BLA BLA BLA BLA BLA BLA BLA BLA BLA BLA 
BLA BLA BLA BLA BLA BLA BLA BLA BLA BLA BLA BLA BLA BLA BLA BLA BLA BLA BLA BLA 
BLA BLA BLA BLA BLA BLA BLA BLA BLA BLA BLA BLA BLA BLA BLA BLA BLA BLA BLA BLA 
BLA BLA BLA BLA BLA BLA BLA BLA BLA BLA BLA BLA BLA BLA BLA BLA BLA BLA BLA BLA 
BLA BLA BLA BLA BLA BLA BLA BLA BLA BLA BLA BLA BLA BLA BLA BLA BLA BLA BLA BLA 
BLA BLA BLA BLA BLA BLA BLA BLA BLA BLA BLA BLA BLA BLA BLA BLA BLA BLA BLA BLA 
BLA BLA BLA BLA BLA BLA BLA BLA BLA BLA BLA BLA BLA BLA BLA BLA BLA BLA BLA BLA 
BLA BLA BLA BLA BLA BLA BLA BLA BLA BLA BLA BLA BLA BLA BLA BLA BLA BLA BLA BLA 
BLA BLA BLA BLA BLA BLA BLA BLA BLA BLA BLA BLA BLA BLA BLA BLA BLA BLA BLA BLA 
BLA BLA BLA BLA BLA BLA BLA BLA BLA BLA BLA BLA BLA BLA BLA BLA BLA BLA BLA BLA 
BLA BLA BLA BLA BLA BLA BLA BLA BLA BLA BLA BLA BLA BLA BLA BLA BLA BLA BLA BLA 
BLA BLA BLA BLA BLA BLA BLA BLA BLA BLA BLA BLA BLA BLA BLA BLA BLA BLA BLA BLA 
BLA BLA BLA BLA BLA BLA BLA BLA BLA BLA BLA BLA BLA BLA BLA BLA BLA BLA BLA BLA 
BLA BLA BLA BLA BLA BLA BLA BLA BLA BLA BLA BLA BLA BLA BLA BLA BLA BLA BLA BLA 
BLA BLA BLA BLA BLA BLA BLA BLA BLA BLA BLA BLA BLA BLA BLA BLA BLA BLA BLA BLA 
BLA BLA BLA BLA BLA BLA BLA BLA BLA BLA BLA BLA BLA BLA BLA BLA BLA BLA BLA BLA 
BLA BLA BLA BLA BLA BLA BLA BLA BLA BLA BLA BLA BLA BLA BLA BLA BLA BLA BLA BLA 
BLA BLA BLA BLA BLA BLA BLA BLA BLA BLA BLA BLA BLA BLA BLA BLA BLA BLA BLA BLA 
BLA BLA BLA BLA BLA BLA BLA BLA BLA BLA BLA BLA BLA BLA BLA BLA BLA BLA BLA BLA 
BLA BLA BLA BLA BLA BLA BLA BLA BLA BLA BLA BLA BLA BLA BLA BLA BLA BLA BLA BLA 
BLA BLA BLA BLA BLA BLA BLA BLA BLA BLA BLA BLA BLA BLA BLA BLA BLA BLA BLA BLA 
BLA BLA BLA BLA BLA BLA BLA BLA BLA BLA BLA BLA BLA BLA BLA BLA BLA BLA BLA BLA 
BLA BLA BLA BLA BLA BLA BLA BLA BLA BLA BLA BLA BLA BLA BLA BLA BLA BLA BLA BLA 
BLA BLA BLA BLA BLA BLA BLA BLA BLA BLA BLA BLA BLA BLA BLA BLA BLA BLA BLA BLA 
BLA BLA BLA BLA BLA BLA BLA BLA BLA BLA BLA BLA BLA BLA BLA BLA BLA BLA BLA BLA 
BLA BLA BLA BLA BLA BLA BLA BLA BLA BLA BLA BLA BLA BLA BLA BLA BLA BLA BLA BLA 
BLA BLA BLA BLA BLA BLA BLA BLA BLA BLA BLA BLA BLA BLA BLA BLA BLA BLA BLA BLA 
BLA BLA BLA BLA BLA BLA BLA BLA BLA BLA BLA BLA BLA BLA BLA BLA BLA BLA BLA BLA 
BLA BLA BLA BLA BLA BLA BLA BLA BLA BLA BLA BLA BLA BLA BLA BLA BLA BLA BLA BLA 
BLA BLA BLA BLA BLA BLA BLA BLA BLA BLA BLA BLA BLA BLA BLA BLA BLA BLA BLA BLA 
BLA BLA BLA BLA BLA BLA BLA BLA BLA BLA BLA BLA BLA BLA BLA BLA BLA BLA BLA BLA 
BLA BLA BLA BLA BLA BLA BLA BLA BLA BLA BLA BLA BLA BLA BLA BLA BLA BLA BLA BLA 
BLA BLA BLA BLA BLA BLA BLA BLA BLA BLA BLA BLA BLA BLA BLA BLA BLA BLA BLA BLA 
BLA BLA BLA BLA BLA BLA BLA BLA BLA BLA BLA BLA BLA BLA BLA BLA BLA BLA BLA BLA 
BLA BLA BLA BLA BLA BLA BLA BLA BLA BLA BLA BLA BLA BLA BLA BLA BLA BLA BLA BLA 
BLA BLA BLA BLA BLA BLA BLA BLA BLA BLA BLA BLA BLA BLA BLA BLA BLA BLA BLA BLA 
BLA BLA BLA BLA BLA BLA BLA BLA BLA BLA BLA BLA BLA BLA BLA BLA BLA BLA BLA BLA 
BLA BLA BLA BLA BLA BLA BLA BLA BLA BLA BLA BLA BLA BLA BLA BLA BLA BLA BLA BLA 
BLA BLA BLA BLA BLA BLA BLA BLA BLA BLA BLA BLA BLA BLA BLA BLA BLA BLA BLA BLA 
BLA BLA BLA BLA BLA BLA BLA BLA BLA BLA BLA BLA BLA BLA BLA BLA BLA BLA BLA BLA 
BLA BLA BLA BLA BLA BLA BLA BLA BLA BLA BLA BLA BLA BLA BLA BLA BLA BLA BLA BLA 
BLA BLA BLA BLA BLA BLA BLA BLA BLA BLA BLA BLA BLA BLA BLA BLA BLA BLA BLA BLA 
BLA BLA BLA BLA BLA BLA BLA BLA BLA BLA BLA BLA BLA BLA BLA BLA BLA BLA BLA BLA 
BLA BLA BLA BLA BLA BLA BLA BLA BLA BLA BLA BLA BLA BLA BLA BLA BLA BLA BLA BLA 
BLA BLA BLA BLA BLA BLA BLA BLA BLA BLA BLA BLA BLA BLA BLA BLA BLA BLA BLA BLA 
BLA BLA BLA BLA BLA BLA BLA BLA BLA BLA BLA BLA BLA BLA BLA BLA BLA BLA BLA BLA 
BLA BLA BLA BLA BLA BLA BLA BLA BLA BLA BLA BLA BLA BLA BLA BLA BLA BLA BLA BLA 
BLA BLA BLA BLA BLA BLA BLA BLA BLA BLA BLA BLA BLA BLA BLA BLA BLA BLA BLA BLA 
BLA BLA BLA BLA BLA BLA BLA BLA BLA BLA BLA BLA BLA BLA BLA BLA BLA BLA BLA BLA 
BLA BLA BLA BLA BLA BLA BLA BLA BLA BLA BLA BLA BLA BLA BLA BLA BLA BLA BLA BLA 
BLA BLA BLA BLA BLA BLA BLA BLA BLA BLA BLA BLA BLA BLA BLA BLA BLA BLA BLA BLA 
BLA BLA BLA BLA BLA BLA BLA BLA BLA BLA BLA BLA BLA BLA BLA BLA BLA BLA BLA BLA 
BLA BLA BLA BLA BLA BLA BLA BLA BLA BLA BLA BLA BLA BLA BLA BLA BLA BLA BLA BLA 
BLA BLA BLA BLA BLA BLA BLA BLA BLA BLA BLA BLA BLA BLA BLA BLA BLA BLA BLA BLA 
BLA BLA BLA BLA BLA BLA BLA BLA BLA BLA BLA BLA BLA BLA BLA BLA BLA BLA BLA BLA 
BLA BLA BLA BLA BLA BLA BLA BLA BLA BLA BLA BLA BLA BLA BLA BLA BLA BLA BLA BLA 
BLA BLA BLA BLA BLA BLA BLA BLA BLA BLA BLA BLA BLA BLA BLA BLA BLA BLA BLA BLA 
BLA BLA BLA BLA BLA BLA BLA BLA BLA BLA BLA BLA BLA BLA BLA BLA BLA BLA BLA BLA 
BLA BLA BLA BLA BLA BLA BLA BLA BLA BLA BLA BLA BLA BLA BLA BLA BLA BLA BLA BLA 
BLA BLA BLA BLA BLA BLA BLA BLA BLA BLA BLA BLA BLA BLA BLA BLA BLA BLA BLA BLA 
BLA BLA BLA BLA BLA BLA BLA BLA BLA BLA BLA BLA BLA BLA BLA BLA BLA BLA BLA BLA 
BLA BLA BLA BLA BLA BLA BLA BLA BLA BLA BLA BLA BLA BLA BLA BLA BLA BLA BLA BLA 
BLA BLA BLA BLA BLA BLA BLA BLA BLA BLA BLA BLA BLA BLA BLA BLA BLA BLA BLA BLA 
BLA BLA BLA BLA BLA BLA BLA BLA BLA BLA BLA BLA BLA BLA BLA BLA BLA BLA BLA BLA 
BLA BLA BLA BLA BLA BLA BLA BLA BLA BLA BLA BLA BLA BLA BLA BLA BLA BLA BLA BLA 
BLA BLA BLA BLA BLA BLA BLA BLA BLA BLA BLA BLA BLA BLA BLA BLA BLA BLA BLA BLA 
BLA BLA BLA BLA BLA BLA BLA BLA BLA BLA BLA BLA BLA BLA BLA BLA BLA BLA BLA BLA 
BLA BLA BLA BLA BLA BLA BLA BLA BLA BLA BLA BLA BLA BLA BLA BLA BLA BLA BLA BLA 
BLA BLA BLA BLA BLA BLA BLA BLA BLA BLA BLA BLA BLA BLA BLA BLA BLA BLA BLA BLA 
BLA BLA BLA BLA BLA BLA BLA BLA BLA BLA BLA BLA BLA BLA BLA BLA BLA BLA BLA BLA 
BLA BLA BLA BLA BLA BLA BLA BLA BLA BLA BLA BLA BLA BLA BLA BLA BLA BLA BLA BLA 
BLA BLA BLA BLA BLA BLA BLA BLA BLA BLA BLA BLA BLA BLA BLA BLA BLA BLA BLA BLA 
BLA BLA BLA BLA BLA BLA BLA BLA BLA BLA BLA BLA BLA BLA BLA BLA BLA BLA BLA BLA 
BLA BLA BLA BLA BLA BLA BLA BLA BLA BLA BLA BLA BLA BLA BLA BLA BLA BLA BLA BLA 
BLA BLA BLA BLA BLA BLA BLA BLA BLA BLA BLA BLA BLA BLA BLA BLA BLA BLA BLA BLA 
BLA BLA BLA BLA BLA BLA BLA BLA BLA BLA BLA BLA BLA BLA BLA BLA BLA BLA BLA BLA 
BLA BLA BLA BLA BLA BLA BLA BLA BLA BLA BLA BLA BLA BLA BLA BLA BLA BLA BLA BLA 
BLA BLA BLA BLA BLA BLA BLA BLA BLA BLA BLA BLA BLA BLA BLA BLA BLA BLA BLA BLA 
BLA BLA BLA BLA BLA BLA BLA BLA BLA BLA BLA BLA BLA BLA BLA BLA BLA BLA BLA BLA 
BLA BLA BLA BLA BLA BLA BLA BLA BLA BLA BLA BLA BLA BLA BLA BLA BLA BLA BLA BLA 
BLA BLA BLA BLA BLA BLA BLA BLA BLA BLA BLA BLA BLA BLA BLA BLA BLA BLA BLA BLA 
BLA BLA BLA BLA BLA BLA BLA BLA BLA BLA BLA BLA BLA BLA BLA BLA BLA BLA BLA BLA 
BLA BLA BLA BLA BLA BLA BLA BLA BLA BLA BLA BLA BLA BLA BLA BLA BLA BLA BLA BLA 
BLA BLA BLA BLA BLA BLA BLA BLA BLA BLA BLA BLA BLA BLA BLA BLA BLA BLA BLA BLA 
BLA BLA BLA BLA BLA BLA BLA BLA BLA BLA BLA BLA BLA BLA BLA BLA BLA BLA BLA BLA 
BLA BLA BLA BLA BLA BLA BLA BLA BLA BLA BLA BLA BLA BLA BLA BLA BLA BLA BLA BLA 
BLA BLA BLA BLA BLA BLA BLA BLA BLA BLA BLA BLA BLA BLA BLA BLA BLA BLA BLA BLA 
BLA BLA BLA BLA BLA BLA BLA BLA BLA BLA BLA BLA BLA BLA BLA BLA BLA BLA BLA BLA 
BLA BLA BLA BLA BLA BLA BLA BLA BLA BLA BLA BLA BLA BLA BLA BLA BLA BLA BLA BLA 
BLA BLA BLA BLA BLA BLA BLA BLA BLA BLA BLA BLA BLA BLA BLA BLA BLA BLA BLA BLA 
BLA BLA BLA BLA BLA BLA BLA BLA BLA BLA BLA BLA BLA BLA BLA BLA BLA BLA BLA BLA 
BLA BLA BLA BLA BLA BLA BLA BLA BLA BLA BLA BLA BLA BLA BLA BLA BLA BLA BLA BLA 
BLA BLA BLA BLA BLA BLA BLA BLA BLA BLA BLA BLA BLA BLA BLA BLA BLA BLA BLA BLA 
BLA BLA BLA BLA BLA BLA BLA BLA BLA BLA BLA BLA BLA BLA BLA BLA BLA BLA BLA BLA 
BLA BLA BLA BLA BLA BLA BLA BLA BLA BLA BLA BLA BLA BLA BLA BLA BLA BLA BLA BLA 
BLA BLA BLA BLA BLA BLA BLA BLA BLA BLA BLA BLA BLA BLA BLA BLA BLA BLA BLA BLA 
BLA BLA BLA BLA BLA BLA BLA BLA BLA BLA BLA BLA BLA BLA BLA BLA BLA BLA BLA BLA 
BLA BLA BLA BLA BLA BLA BLA BLA BLA BLA BLA BLA BLA BLA BLA BLA BLA BLA BLA BLA 
BLA BLA BLA BLA BLA BLA BLA BLA BLA BLA BLA BLA BLA BLA BLA BLA BLA BLA BLA BLA 
BLA BLA BLA BLA BLA BLA BLA BLA BLA BLA BLA BLA BLA BLA BLA BLA BLA BLA BLA BLA 
BLA BLA BLA BLA BLA BLA BLA BLA BLA BLA BLA BLA BLA BLA BLA BLA BLA BLA BLA BLA 
BLA BLA BLA BLA BLA BLA BLA BLA BLA BLA BLA BLA BLA BLA BLA BLA BLA BLA BLA BLA 
BLA BLA BLA BLA BLA BLA BLA BLA BLA BLA BLA BLA BLA BLA BLA BLA BLA BLA BLA BLA 
BLA BLA BLA BLA BLA BLA BLA BLA BLA BLA BLA BLA BLA BLA BLA BLA BLA BLA BLA BLA 
BLA BLA BLA BLA BLA BLA BLA BLA BLA BLA BLA BLA BLA BLA BLA BLA BLA BLA BLA BLA 
BLA BLA BLA BLA BLA BLA BLA BLA BLA BLA BLA BLA BLA BLA BLA BLA BLA BLA BLA BLA 
BLA BLA BLA BLA BLA BLA BLA BLA BLA BLA BLA BLA BLA BLA BLA BLA BLA BLA BLA BLA 
BLA BLA BLA BLA BLA BLA BLA BLA BLA BLA BLA BLA BLA BLA BLA BLA BLA BLA BLA BLA 
BLA BLA BLA BLA BLA BLA BLA BLA BLA BLA BLA BLA BLA BLA BLA BLA BLA BLA BLA BLA 
BLA BLA BLA BLA BLA BLA BLA BLA BLA BLA BLA BLA BLA BLA BLA BLA BLA BLA BLA BLA 
BLA BLA BLA BLA BLA BLA BLA BLA BLA BLA BLA BLA BLA BLA BLA BLA BLA BLA BLA BLA 
BLA BLA BLA BLA BLA BLA BLA BLA BLA BLA BLA BLA BLA BLA BLA BLA BLA BLA BLA BLA 
BLA BLA BLA BLA BLA BLA BLA BLA BLA BLA BLA BLA BLA BLA BLA BLA BLA BLA BLA BLA 
BLA BLA BLA BLA BLA BLA BLA BLA BLA BLA BLA BLA BLA BLA BLA BLA BLA BLA BLA BLA 
BLA BLA BLA BLA BLA BLA BLA BLA BLA BLA BLA BLA BLA BLA BLA BLA BLA BLA BLA BLA 
BLA BLA BLA BLA BLA BLA BLA BLA BLA BLA BLA BLA BLA BLA BLA BLA BLA BLA BLA BLA 
BLA BLA BLA BLA BLA BLA BLA BLA BLA BLA BLA BLA BLA BLA BLA BLA BLA BLA BLA BLA 
BLA BLA BLA BLA BLA BLA BLA BLA BLA BLA BLA BLA BLA BLA BLA BLA BLA BLA BLA BLA 
BLA BLA BLA BLA BLA BLA BLA BLA BLA BLA BLA BLA BLA BLA BLA BLA BLA BLA BLA BLA 
BLA BLA BLA BLA BLA BLA BLA BLA BLA BLA BLA BLA BLA BLA BLA BLA BLA BLA BLA BLA 
BLA BLA BLA BLA BLA BLA BLA BLA BLA BLA BLA BLA BLA BLA BLA BLA BLA BLA BLA BLA 
BLA BLA BLA BLA BLA BLA BLA BLA BLA BLA BLA BLA BLA BLA BLA BLA BLA BLA BLA BLA 
BLA BLA BLA BLA BLA BLA BLA BLA BLA BLA BLA BLA BLA BLA BLA BLA BLA BLA BLA BLA 
BLA BLA BLA BLA BLA BLA BLA BLA BLA BLA BLA BLA BLA BLA BLA BLA BLA BLA BLA BLA 
BLA BLA BLA BLA BLA BLA BLA BLA BLA BLA BLA BLA BLA BLA BLA BLA BLA BLA BLA BLA 
BLA BLA BLA BLA BLA BLA BLA BLA BLA BLA BLA BLA BLA BLA BLA BLA BLA BLA BLA BLA 
BLA BLA BLA BLA BLA BLA BLA BLA BLA BLA BLA BLA BLA BLA BLA BLA BLA BLA BLA BLA 
BLA BLA BLA BLA BLA BLA BLA BLA BLA BLA BLA BLA BLA BLA BLA BLA BLA BLA BLA BLA 
BLA BLA BLA BLA BLA BLA BLA BLA BLA BLA BLA BLA BLA BLA BLA BLA BLA BLA BLA BLA 
BLA BLA BLA BLA BLA BLA BLA BLA BLA BLA BLA BLA BLA BLA BLA BLA BLA BLA BLA BLA 
BLA BLA BLA BLA BLA BLA BLA BLA BLA BLA BLA BLA BLA BLA BLA BLA BLA BLA BLA BLA 
BLA BLA BLA BLA BLA BLA BLA BLA BLA BLA BLA BLA BLA BLA BLA BLA BLA BLA BLA BLA 
BLA BLA BLA BLA BLA BLA BLA BLA BLA BLA BLA BLA BLA BLA BLA BLA BLA BLA BLA BLA 
BLA BLA BLA BLA BLA BLA BLA BLA BLA BLA BLA BLA BLA BLA BLA BLA BLA BLA BLA BLA 
BLA BLA BLA BLA BLA BLA BLA BLA BLA BLA BLA BLA BLA BLA BLA BLA BLA BLA BLA BLA 
BLA BLA BLA BLA BLA BLA BLA BLA BLA BLA BLA BLA BLA BLA BLA BLA BLA BLA BLA BLA 
BLA BLA BLA BLA BLA BLA BLA BLA BLA BLA BLA BLA BLA BLA BLA BLA BLA BLA BLA BLA 
BLA BLA BLA BLA BLA BLA BLA BLA BLA BLA BLA BLA BLA BLA BLA BLA BLA BLA BLA BLA 
BLA BLA BLA BLA BLA BLA BLA BLA BLA BLA BLA BLA BLA BLA BLA BLA BLA BLA BLA BLA 
BLA BLA BLA BLA BLA BLA BLA BLA BLA BLA BLA BLA BLA BLA BLA BLA BLA BLA BLA BLA 
BLA BLA BLA BLA BLA BLA BLA BLA BLA BLA BLA BLA BLA BLA BLA BLA BLA BLA BLA BLA 
BLA BLA BLA BLA BLA BLA BLA BLA BLA BLA BLA BLA BLA BLA BLA BLA BLA BLA BLA BLA 
BLA BLA BLA BLA BLA BLA BLA BLA BLA BLA BLA BLA BLA BLA BLA BLA BLA BLA BLA BLA 
BLA BLA BLA BLA BLA BLA BLA BLA BLA BLA BLA BLA BLA BLA BLA BLA BLA BLA BLA BLA 
BLA BLA BLA BLA BLA BLA BLA BLA BLA BLA BLA BLA BLA BLA BLA BLA BLA BLA BLA BLA 
BLA BLA BLA BLA BLA BLA BLA BLA BLA BLA BLA BLA BLA BLA BLA BLA BLA BLA BLA BLA 
BLA BLA BLA BLA BLA BLA BLA BLA BLA BLA BLA BLA BLA BLA BLA BLA BLA BLA BLA BLA 
BLA BLA BLA BLA BLA BLA BLA BLA BLA BLA BLA BLA BLA BLA BLA BLA BLA BLA BLA BLA 
BLA BLA BLA BLA BLA BLA BLA BLA BLA BLA BLA BLA BLA BLA BLA BLA BLA BLA BLA BLA 
BLA BLA BLA BLA BLA BLA BLA BLA BLA BLA BLA BLA BLA BLA BLA BLA BLA BLA BLA BLA 
BLA BLA BLA BLA BLA BLA BLA BLA BLA BLA BLA BLA BLA BLA BLA BLA BLA BLA BLA BLA 
BLA BLA BLA BLA BLA BLA BLA BLA BLA BLA BLA BLA BLA BLA BLA BLA BLA BLA BLA BLA 
BLA BLA BLA BLA BLA BLA BLA BLA BLA BLA BLA BLA BLA BLA BLA BLA BLA BLA BLA BLA 
BLA BLA BLA BLA BLA BLA BLA BLA BLA BLA BLA BLA BLA BLA BLA BLA BLA BLA BLA BLA 
BLA BLA BLA BLA BLA BLA BLA BLA BLA BLA BLA BLA BLA BLA BLA BLA BLA BLA BLA BLA 
BLA BLA BLA BLA BLA BLA BLA BLA BLA BLA BLA BLA BLA BLA BLA BLA BLA BLA BLA BLA 
BLA BLA BLA BLA BLA BLA BLA BLA BLA BLA BLA BLA BLA BLA BLA BLA BLA BLA BLA BLA 
BLA BLA BLA BLA BLA BLA BLA BLA BLA BLA BLA BLA BLA BLA BLA BLA BLA BLA BLA BLA 
BLA BLA BLA BLA BLA BLA BLA BLA BLA BLA BLA BLA BLA BLA BLA BLA BLA BLA BLA BLA 
BLA BLA BLA BLA BLA BLA BLA BLA BLA BLA BLA BLA BLA BLA BLA BLA BLA BLA BLA BLA 
BLA BLA BLA BLA BLA BLA BLA BLA BLA BLA BLA BLA BLA BLA BLA BLA BLA BLA BLA BLA 
BLA BLA BLA BLA BLA BLA BLA BLA BLA BLA BLA BLA BLA BLA BLA BLA BLA BLA BLA BLA 
BLA BLA BLA BLA BLA BLA BLA BLA BLA BLA BLA BLA BLA BLA BLA BLA BLA BLA BLA BLA 
BLA BLA BLA BLA BLA BLA BLA BLA BLA BLA BLA BLA BLA BLA BLA BLA BLA BLA BLA BLA 
BLA BLA BLA BLA BLA BLA BLA BLA BLA BLA BLA BLA BLA BLA BLA BLA BLA BLA BLA BLA 
BLA BLA BLA BLA BLA BLA BLA BLA BLA BLA BLA BLA BLA BLA BLA BLA BLA BLA BLA BLA 
BLA BLA BLA BLA BLA BLA BLA BLA BLA BLA BLA BLA BLA BLA BLA BLA BLA BLA BLA BLA 
BLA BLA BLA BLA BLA BLA BLA BLA BLA BLA BLA BLA BLA BLA BLA BLA BLA BLA BLA BLA 
BLA BLA BLA BLA BLA BLA BLA BLA BLA BLA BLA BLA BLA BLA BLA BLA BLA BLA BLA BLA 
BLA BLA BLA BLA BLA BLA BLA BLA BLA BLA BLA BLA BLA BLA BLA BLA BLA BLA BLA BLA 
BLA BLA BLA BLA BLA BLA BLA BLA BLA BLA BLA BLA BLA BLA BLA BLA BLA BLA BLA BLA 
BLA BLA BLA BLA BLA BLA BLA BLA BLA BLA BLA BLA BLA BLA BLA BLA BLA BLA BLA BLA 
BLA BLA BLA BLA BLA BLA BLA BLA BLA BLA BLA BLA BLA BLA BLA BLA BLA BLA BLA BLA 
BLA BLA BLA BLA BLA BLA BLA BLA BLA BLA BLA BLA BLA BLA BLA BLA BLA BLA BLA BLA 
BLA BLA BLA BLA BLA BLA BLA BLA BLA BLA BLA BLA BLA BLA BLA BLA BLA BLA BLA BLA 
BLA BLA BLA BLA BLA BLA BLA BLA BLA BLA BLA BLA BLA BLA BLA BLA BLA BLA BLA BLA 
BLA BLA BLA BLA BLA BLA BLA BLA BLA BLA BLA BLA BLA BLA BLA BLA BLA BLA BLA BLA 
BLA BLA BLA BLA BLA BLA BLA BLA BLA BLA BLA BLA BLA BLA BLA BLA BLA BLA BLA BLA 
BLA BLA BLA BLA BLA BLA BLA BLA BLA BLA BLA BLA BLA BLA BLA BLA BLA BLA BLA BLA 
BLA BLA BLA BLA BLA BLA BLA BLA BLA BLA BLA BLA BLA BLA BLA BLA BLA BLA BLA BLA 
BLA BLA BLA BLA BLA BLA BLA BLA BLA BLA BLA BLA BLA BLA BLA BLA BLA BLA BLA BLA 
BLA BLA BLA BLA BLA BLA BLA BLA BLA BLA BLA BLA BLA BLA BLA BLA BLA BLA BLA BLA 
BLA BLA BLA BLA BLA BLA BLA BLA BLA BLA BLA BLA BLA BLA BLA BLA BLA BLA BLA BLA 
BLA BLA BLA BLA BLA BLA BLA BLA BLA BLA BLA BLA BLA BLA BLA BLA BLA BLA BLA BLA 
BLA BLA BLA BLA BLA BLA BLA BLA BLA BLA BLA BLA BLA BLA BLA BLA BLA BLA BLA BLA 
BLA BLA BLA BLA BLA BLA BLA BLA BLA BLA BLA BLA BLA BLA BLA BLA BLA BLA BLA BLA 
BLA BLA BLA BLA BLA BLA BLA BLA BLA BLA BLA BLA BLA BLA BLA BLA BLA BLA BLA BLA 
BLA BLA BLA BLA BLA BLA BLA BLA BLA BLA BLA BLA BLA BLA BLA BLA BLA BLA BLA BLA 
BLA BLA BLA BLA BLA BLA BLA BLA BLA BLA BLA BLA BLA BLA BLA BLA BLA BLA BLA BLA 
BLA BLA BLA BLA BLA BLA BLA BLA BLA BLA BLA BLA BLA BLA BLA BLA BLA BLA BLA BLA 
BLA BLA BLA BLA BLA BLA BLA BLA BLA BLA BLA BLA BLA BLA BLA BLA BLA BLA BLA BLA 
BLA BLA BLA BLA BLA BLA BLA BLA BLA BLA BLA BLA BLA BLA BLA BLA BLA BLA BLA BLA 
BLA BLA BLA BLA BLA BLA BLA BLA BLA BLA BLA BLA BLA BLA BLA BLA BLA BLA BLA BLA 
BLA BLA BLA BLA BLA BLA BLA BLA BLA BLA BLA BLA BLA BLA BLA BLA BLA BLA BLA BLA 
BLA BLA BLA BLA BLA BLA BLA BLA BLA BLA BLA BLA BLA BLA BLA BLA BLA BLA BLA BLA 
BLA BLA BLA BLA BLA BLA BLA BLA BLA BLA BLA BLA BLA BLA BLA BLA BLA BLA BLA BLA 
BLA BLA BLA BLA BLA BLA BLA BLA BLA BLA BLA BLA BLA BLA BLA BLA BLA BLA BLA BLA 
BLA BLA BLA BLA BLA BLA BLA BLA BLA BLA BLA BLA BLA BLA BLA BLA BLA BLA BLA BLA 
BLA BLA BLA BLA BLA BLA BLA BLA BLA BLA BLA BLA BLA BLA BLA BLA BLA BLA BLA BLA 
BLA BLA BLA BLA BLA BLA BLA BLA BLA BLA BLA BLA BLA BLA BLA BLA BLA BLA BLA BLA 
BLA BLA BLA BLA BLA BLA BLA BLA BLA BLA BLA BLA BLA BLA BLA BLA BLA BLA BLA BLA 
BLA BLA BLA BLA BLA BLA BLA BLA BLA BLA BLA BLA BLA BLA BLA BLA BLA BLA BLA BLA 
BLA BLA BLA BLA BLA BLA BLA BLA BLA BLA BLA BLA BLA BLA BLA BLA BLA BLA BLA BLA 
BLA BLA BLA BLA BLA BLA BLA BLA BLA BLA BLA BLA BLA BLA BLA BLA BLA BLA BLA BLA 
BLA BLA BLA BLA BLA BLA BLA BLA BLA BLA BLA BLA BLA BLA BLA BLA BLA BLA BLA BLA 
BLA BLA BLA BLA BLA BLA BLA BLA BLA BLA BLA BLA BLA BLA BLA BLA BLA BLA BLA BLA 
BLA BLA BLA BLA BLA BLA BLA BLA BLA BLA BLA BLA BLA BLA BLA BLA BLA BLA BLA BLA 
BLA BLA BLA BLA BLA BLA BLA BLA BLA BLA BLA BLA BLA BLA BLA BLA BLA BLA BLA BLA 
BLA BLA BLA BLA BLA BLA BLA BLA BLA BLA BLA BLA BLA BLA BLA BLA BLA BLA BLA BLA 
BLA BLA BLA BLA BLA BLA BLA BLA BLA BLA BLA BLA BLA BLA BLA BLA BLA BLA BLA BLA 
BLA BLA BLA BLA BLA BLA BLA BLA BLA BLA BLA BLA BLA BLA BLA BLA BLA BLA BLA BLA 
BLA BLA BLA BLA BLA BLA BLA BLA BLA BLA BLA BLA BLA BLA BLA BLA BLA BLA BLA BLA 
BLA BLA BLA BLA BLA BLA BLA BLA BLA BLA BLA BLA BLA BLA BLA BLA BLA BLA BLA BLA 
BLA BLA BLA BLA BLA BLA BLA BLA BLA BLA BLA BLA BLA BLA BLA BLA BLA BLA BLA BLA 
BLA BLA BLA BLA BLA BLA BLA BLA BLA BLA BLA BLA BLA BLA BLA BLA BLA BLA BLA BLA 
BLA BLA BLA BLA BLA BLA BLA BLA BLA BLA BLA BLA BLA BLA BLA BLA BLA BLA BLA BLA 
BLA BLA BLA BLA BLA BLA BLA BLA BLA BLA BLA BLA BLA BLA BLA BLA BLA BLA BLA BLA 
BLA BLA BLA BLA BLA BLA BLA BLA BLA BLA BLA BLA BLA BLA BLA BLA BLA BLA BLA BLA 
BLA BLA BLA BLA BLA BLA BLA BLA BLA BLA BLA BLA BLA BLA BLA BLA BLA BLA BLA BLA 
BLA BLA BLA BLA BLA BLA BLA BLA BLA BLA BLA BLA BLA BLA BLA BLA BLA BLA BLA BLA 
BLA BLA BLA BLA BLA BLA BLA BLA BLA BLA BLA BLA BLA BLA BLA BLA BLA BLA BLA BLA 
BLA BLA BLA BLA BLA BLA BLA BLA BLA BLA BLA BLA BLA BLA BLA BLA BLA BLA BLA BLA 
BLA BLA BLA BLA BLA BLA BLA BLA BLA BLA BLA BLA BLA BLA BLA BLA BLA BLA BLA BLA 
BLA BLA BLA BLA BLA BLA BLA BLA BLA BLA BLA BLA BLA BLA BLA BLA BLA BLA BLA BLA 
BLA BLA BLA BLA BLA BLA BLA BLA BLA BLA BLA BLA BLA BLA BLA BLA BLA BLA BLA BLA 
BLA BLA BLA BLA BLA BLA BLA BLA BLA BLA BLA BLA BLA BLA BLA BLA BLA BLA BLA BLA 
BLA BLA BLA BLA BLA BLA BLA BLA BLA BLA BLA BLA BLA BLA BLA BLA BLA BLA BLA BLA 
BLA BLA BLA BLA BLA BLA BLA BLA BLA BLA BLA BLA BLA BLA BLA BLA BLA BLA BLA BLA 
BLA BLA BLA BLA BLA BLA BLA BLA BLA BLA BLA BLA BLA BLA BLA BLA BLA BLA BLA BLA 
BLA BLA BLA BLA BLA BLA BLA BLA BLA BLA BLA BLA BLA BLA BLA BLA BLA BLA BLA BLA 
BLA BLA BLA BLA BLA BLA BLA BLA BLA BLA BLA BLA BLA BLA BLA BLA BLA BLA BLA BLA 
BLA BLA BLA BLA BLA BLA BLA BLA BLA BLA BLA BLA BLA BLA BLA BLA BLA BLA BLA BLA 
BLA BLA BLA BLA BLA BLA BLA BLA BLA BLA BLA BLA BLA BLA BLA BLA BLA BLA BLA BLA 
BLA BLA BLA BLA BLA BLA BLA BLA BLA BLA BLA BLA BLA BLA BLA BLA BLA BLA BLA BLA 
BLA BLA BLA BLA BLA BLA BLA BLA BLA BLA BLA BLA BLA BLA BLA BLA BLA BLA BLA BLA 
BLA BLA BLA BLA BLA BLA BLA BLA BLA BLA BLA BLA BLA BLA BLA BLA BLA BLA BLA BLA 
BLA BLA BLA BLA BLA BLA BLA BLA BLA BLA BLA BLA BLA BLA BLA BLA BLA BLA BLA BLA 
BLA BLA BLA BLA BLA BLA BLA BLA BLA BLA BLA BLA BLA BLA BLA BLA BLA BLA BLA BLA 
BLA BLA BLA BLA BLA BLA BLA BLA BLA BLA BLA BLA BLA BLA BLA BLA BLA BLA BLA BLA 
BLA BLA BLA BLA BLA BLA BLA BLA BLA BLA BLA BLA BLA BLA BLA BLA BLA BLA BLA BLA 
BLA BLA BLA BLA BLA BLA BLA BLA BLA BLA BLA BLA BLA BLA BLA BLA BLA BLA BLA BLA 
BLA BLA BLA BLA BLA BLA BLA BLA BLA BLA BLA BLA BLA BLA BLA BLA BLA BLA BLA BLA 
BLA BLA BLA BLA BLA BLA BLA BLA BLA BLA BLA BLA BLA BLA BLA BLA BLA BLA BLA BLA 
BLA BLA BLA BLA BLA BLA BLA BLA BLA BLA BLA BLA BLA BLA BLA BLA BLA BLA BLA BLA 
BLA BLA BLA BLA BLA BLA BLA BLA BLA BLA BLA BLA BLA BLA BLA BLA BLA BLA BLA BLA 
BLA BLA BLA BLA BLA BLA BLA BLA BLA BLA BLA BLA BLA BLA BLA BLA BLA BLA BLA BLA 
BLA BLA BLA BLA BLA BLA BLA BLA BLA BLA BLA BLA BLA BLA BLA BLA BLA BLA BLA BLA 
BLA BLA BLA BLA BLA BLA BLA BLA BLA BLA BLA BLA BLA BLA BLA BLA BLA BLA BLA BLA 
BLA BLA BLA BLA BLA BLA BLA BLA BLA BLA BLA BLA BLA BLA BLA BLA BLA BLA BLA BLA 
BLA BLA BLA BLA BLA BLA BLA BLA BLA BLA BLA BLA BLA BLA BLA BLA BLA BLA BLA BLA 
BLA BLA BLA BLA BLA BLA BLA BLA BLA BLA BLA BLA BLA BLA BLA BLA BLA BLA BLA BLA 
BLA BLA BLA BLA BLA BLA BLA BLA BLA BLA BLA BLA BLA BLA BLA BLA BLA BLA BLA BLA 
BLA BLA BLA BLA BLA BLA BLA BLA BLA BLA BLA BLA BLA BLA BLA BLA BLA BLA BLA BLA 
BLA BLA BLA BLA BLA BLA BLA BLA BLA BLA BLA BLA BLA BLA BLA BLA BLA BLA BLA BLA 
BLA BLA BLA BLA BLA BLA BLA BLA BLA BLA BLA BLA BLA BLA BLA BLA BLA BLA BLA BLA 
BLA BLA BLA BLA BLA BLA BLA BLA BLA BLA BLA BLA BLA BLA BLA BLA BLA BLA BLA BLA 
BLA BLA BLA BLA BLA BLA BLA BLA BLA BLA BLA BLA BLA BLA BLA BLA BLA BLA BLA BLA 
BLA BLA BLA BLA BLA BLA BLA BLA BLA BLA BLA BLA BLA BLA BLA BLA BLA BLA BLA BLA 
BLA BLA BLA BLA BLA BLA BLA BLA BLA BLA BLA BLA BLA BLA BLA BLA BLA BLA BLA BLA 
BLA BLA BLA BLA BLA BLA BLA BLA BLA BLA BLA BLA BLA BLA BLA BLA BLA BLA BLA BLA 
BLA BLA BLA BLA BLA BLA BLA BLA BLA BLA BLA BLA BLA BLA BLA BLA BLA BLA BLA BLA 
BLA BLA BLA BLA BLA BLA BLA BLA BLA BLA BLA BLA BLA BLA BLA BLA BLA BLA BLA BLA 
BLA BLA BLA BLA BLA BLA BLA BLA BLA BLA BLA BLA BLA BLA BLA BLA BLA BLA BLA BLA 
BLA BLA BLA BLA BLA BLA BLA BLA BLA BLA BLA BLA BLA BLA BLA BLA BLA BLA BLA BLA 
BLA BLA BLA BLA BLA BLA BLA BLA BLA BLA BLA BLA BLA BLA BLA BLA BLA BLA BLA BLA 
BLA BLA BLA BLA BLA BLA BLA BLA BLA BLA BLA BLA BLA BLA BLA BLA BLA BLA BLA BLA 
BLA BLA BLA BLA BLA BLA BLA BLA BLA BLA BLA BLA BLA BLA BLA BLA BLA BLA BLA BLA 
BLA BLA BLA BLA BLA BLA BLA BLA BLA BLA BLA BLA BLA BLA BLA BLA BLA BLA BLA BLA 
BLA BLA BLA BLA BLA BLA BLA BLA BLA BLA BLA BLA BLA BLA BLA BLA BLA BLA BLA BLA 
BLA BLA BLA BLA BLA BLA BLA BLA BLA BLA BLA BLA BLA BLA BLA BLA BLA BLA BLA BLA 
BLA BLA BLA BLA BLA BLA BLA BLA BLA BLA BLA BLA BLA BLA BLA BLA BLA BLA BLA BLA 
BLA BLA BLA BLA BLA BLA BLA BLA BLA BLA BLA BLA BLA BLA BLA BLA BLA BLA BLA BLA 
BLA BLA BLA BLA BLA BLA BLA BLA BLA BLA BLA BLA BLA BLA BLA BLA BLA BLA BLA BLA 
BLA BLA BLA BLA BLA BLA BLA BLA BLA BLA BLA BLA BLA BLA BLA BLA BLA BLA BLA BLA 
BLA BLA BLA BLA BLA BLA BLA BLA BLA BLA BLA BLA BLA BLA BLA BLA BLA BLA BLA BLA 
BLA BLA BLA BLA BLA BLA BLA BLA BLA BLA BLA BLA BLA BLA BLA BLA BLA BLA BLA BLA 
BLA BLA BLA BLA BLA BLA BLA BLA BLA BLA BLA BLA BLA BLA BLA BLA BLA BLA BLA BLA 
BLA BLA BLA BLA BLA BLA BLA BLA BLA BLA BLA BLA BLA BLA BLA BLA BLA BLA BLA BLA 
BLA BLA BLA BLA BLA BLA BLA BLA BLA BLA BLA BLA BLA BLA BLA BLA BLA BLA BLA BLA 
BLA BLA BLA BLA BLA BLA BLA BLA BLA BLA BLA BLA BLA BLA BLA BLA BLA BLA BLA BLA 
BLA BLA BLA BLA BLA BLA BLA BLA BLA BLA BLA BLA BLA BLA BLA BLA BLA BLA BLA BLA 
BLA BLA BLA BLA BLA BLA BLA BLA BLA BLA BLA BLA BLA BLA BLA BLA BLA BLA BLA BLA 
BLA BLA BLA BLA BLA BLA BLA BLA BLA BLA BLA BLA BLA BLA BLA BLA BLA BLA BLA BLA 
BLA BLA BLA BLA BLA BLA BLA BLA BLA BLA BLA BLA BLA BLA BLA BLA BLA BLA BLA BLA 
BLA BLA BLA BLA BLA BLA BLA BLA BLA BLA BLA BLA BLA BLA BLA BLA BLA BLA BLA BLA 
BLA BLA BLA BLA BLA BLA BLA BLA BLA BLA BLA BLA BLA BLA BLA BLA BLA BLA BLA BLA 
BLA BLA BLA BLA BLA BLA BLA BLA BLA BLA BLA BLA BLA BLA BLA BLA BLA BLA BLA BLA 
BLA BLA BLA BLA BLA BLA BLA BLA BLA BLA BLA BLA BLA BLA BLA BLA BLA BLA BLA BLA 
BLA BLA BLA BLA BLA BLA BLA BLA BLA BLA BLA BLA BLA BLA BLA BLA BLA BLA BLA BLA 
BLA BLA BLA BLA BLA BLA BLA BLA BLA BLA BLA BLA BLA BLA BLA BLA BLA BLA BLA BLA 
BLA BLA BLA BLA BLA BLA BLA BLA BLA BLA BLA BLA BLA BLA BLA BLA BLA BLA BLA BLA 
BLA BLA BLA BLA BLA BLA BLA BLA BLA BLA BLA BLA BLA BLA BLA BLA BLA BLA BLA BLA 
BLA BLA BLA BLA BLA BLA BLA BLA BLA BLA BLA BLA BLA BLA BLA BLA BLA BLA BLA BLA 
BLA BLA BLA BLA BLA BLA BLA BLA BLA BLA BLA BLA BLA BLA BLA BLA BLA BLA BLA BLA 
BLA BLA BLA BLA BLA BLA BLA BLA BLA BLA BLA BLA BLA BLA BLA BLA BLA BLA BLA BLA 
BLA BLA BLA BLA BLA BLA BLA BLA BLA BLA BLA BLA BLA BLA BLA BLA BLA BLA BLA BLA 
BLA BLA BLA BLA BLA BLA BLA BLA BLA BLA BLA BLA BLA BLA BLA BLA BLA BLA BLA BLA 
BLA BLA BLA BLA BLA BLA BLA BLA BLA BLA BLA BLA BLA BLA BLA BLA BLA BLA BLA BLA 
BLA BLA BLA BLA BLA BLA BLA BLA BLA BLA BLA BLA BLA BLA BLA BLA BLA BLA BLA BLA 
BLA BLA BLA BLA BLA BLA BLA BLA BLA BLA BLA BLA BLA BLA BLA BLA BLA BLA BLA BLA 
BLA BLA BLA BLA BLA BLA BLA BLA BLA BLA BLA BLA BLA BLA BLA BLA BLA BLA BLA BLA 
BLA BLA BLA BLA BLA BLA BLA BLA BLA BLA BLA BLA BLA BLA BLA BLA BLA BLA BLA BLA 
BLA BLA BLA BLA BLA BLA BLA BLA BLA BLA BLA BLA BLA BLA BLA BLA BLA BLA BLA BLA 
BLA BLA BLA BLA BLA BLA BLA BLA BLA BLA BLA BLA BLA BLA BLA BLA BLA BLA BLA BLA 
BLA BLA BLA BLA BLA BLA BLA BLA BLA BLA BLA BLA BLA BLA BLA BLA BLA BLA BLA BLA 
BLA BLA BLA BLA BLA BLA BLA BLA BLA BLA BLA BLA BLA BLA BLA BLA BLA BLA BLA BLA 
BLA BLA BLA BLA BLA BLA BLA BLA BLA BLA BLA BLA BLA BLA BLA BLA BLA BLA BLA BLA 
BLA BLA BLA BLA BLA BLA BLA BLA BLA BLA BLA BLA BLA BLA BLA BLA BLA BLA BLA BLA 
BLA BLA BLA BLA BLA BLA BLA BLA BLA BLA BLA BLA BLA BLA BLA BLA BLA BLA BLA BLA 
BLA BLA BLA BLA BLA BLA BLA BLA BLA BLA BLA BLA BLA BLA BLA BLA BLA BLA BLA BLA 
BLA BLA BLA BLA BLA BLA BLA BLA BLA BLA BLA BLA BLA BLA BLA BLA BLA BLA BLA BLA 
BLA BLA BLA BLA BLA BLA BLA BLA BLA BLA BLA BLA BLA BLA BLA BLA BLA BLA BLA BLA 
BLA BLA BLA BLA BLA BLA BLA BLA BLA BLA BLA BLA BLA BLA BLA BLA BLA BLA BLA BLA 
BLA BLA BLA BLA BLA BLA BLA BLA BLA BLA BLA BLA BLA BLA BLA BLA BLA BLA BLA BLA 
BLA BLA BLA BLA BLA BLA BLA BLA BLA BLA BLA BLA BLA BLA BLA BLA BLA BLA BLA BLA 
BLA BLA BLA BLA BLA BLA BLA BLA BLA BLA BLA BLA BLA BLA BLA BLA BLA BLA BLA BLA 
BLA BLA BLA BLA BLA BLA BLA BLA BLA BLA BLA BLA BLA BLA BLA BLA BLA BLA BLA BLA 
BLA BLA BLA BLA BLA BLA BLA BLA BLA BLA BLA BLA BLA BLA BLA BLA BLA BLA BLA BLA 
BLA BLA BLA BLA BLA BLA BLA BLA BLA BLA BLA BLA BLA BLA BLA BLA BLA BLA BLA BLA 
BLA BLA BLA BLA BLA BLA BLA BLA BLA BLA BLA BLA BLA BLA BLA BLA BLA BLA BLA BLA 
BLA BLA BLA BLA BLA BLA BLA BLA BLA BLA BLA BLA BLA BLA BLA BLA BLA BLA BLA BLA 
BLA BLA BLA BLA BLA BLA BLA BLA BLA BLA BLA BLA BLA BLA BLA BLA BLA BLA BLA BLA 
BLA BLA BLA BLA BLA BLA BLA BLA BLA BLA BLA BLA BLA BLA BLA BLA BLA BLA BLA BLA 
BLA BLA BLA BLA BLA BLA BLA BLA BLA BLA BLA BLA BLA BLA BLA BLA BLA BLA BLA BLA 
BLA BLA BLA BLA BLA BLA BLA BLA BLA BLA BLA BLA BLA BLA BLA BLA BLA BLA BLA BLA 
BLA BLA BLA BLA BLA BLA BLA BLA BLA BLA BLA BLA BLA BLA BLA BLA BLA BLA BLA BLA 
BLA BLA BLA BLA BLA BLA BLA BLA BLA BLA BLA BLA BLA BLA BLA BLA BLA BLA BLA BLA 
BLA BLA BLA BLA BLA BLA BLA BLA BLA BLA BLA BLA BLA BLA BLA BLA BLA BLA BLA BLA 
BLA BLA BLA BLA BLA BLA BLA BLA BLA BLA BLA BLA BLA BLA BLA BLA BLA BLA BLA BLA 
BLA BLA BLA BLA BLA BLA BLA BLA BLA BLA BLA BLA BLA BLA BLA BLA BLA BLA BLA BLA 
BLA BLA BLA BLA BLA BLA BLA BLA BLA BLA BLA BLA BLA BLA BLA BLA BLA BLA BLA BLA 
BLA BLA BLA BLA BLA BLA BLA BLA BLA BLA BLA BLA BLA BLA BLA BLA BLA BLA BLA BLA 
BLA BLA BLA BLA BLA BLA BLA BLA BLA BLA BLA BLA BLA BLA BLA BLA BLA BLA BLA BLA 
BLA BLA BLA BLA BLA BLA BLA BLA BLA BLA BLA BLA BLA BLA BLA BLA BLA BLA BLA BLA 
BLA BLA BLA BLA BLA BLA BLA BLA BLA BLA BLA BLA BLA BLA BLA BLA BLA BLA BLA BLA 
BLA BLA BLA BLA BLA BLA BLA BLA BLA BLA BLA BLA BLA BLA BLA BLA BLA BLA BLA BLA 
BLA BLA BLA BLA BLA BLA BLA BLA BLA BLA BLA BLA BLA BLA BLA BLA BLA BLA BLA BLA 
BLA BLA BLA BLA BLA BLA BLA BLA BLA BLA BLA BLA BLA BLA BLA BLA BLA BLA BLA BLA 
BLA BLA BLA BLA BLA BLA BLA BLA BLA BLA BLA BLA BLA BLA BLA BLA BLA BLA BLA BLA 
BLA BLA BLA BLA BLA BLA BLA BLA BLA BLA BLA BLA BLA BLA BLA BLA BLA BLA BLA BLA 
BLA BLA BLA BLA BLA BLA BLA BLA BLA BLA BLA BLA BLA BLA BLA BLA BLA BLA BLA BLA 
BLA BLA BLA BLA BLA BLA BLA BLA BLA BLA BLA BLA BLA BLA BLA BLA BLA BLA BLA BLA 
BLA BLA BLA BLA BLA BLA BLA BLA BLA BLA BLA BLA BLA BLA BLA BLA BLA BLA BLA BLA 
BLA BLA BLA BLA BLA BLA BLA BLA BLA BLA BLA BLA BLA BLA BLA BLA BLA BLA BLA BLA 
BLA BLA BLA BLA BLA BLA BLA BLA BLA BLA BLA BLA BLA BLA BLA BLA BLA BLA BLA BLA 
BLA BLA BLA BLA BLA BLA BLA BLA BLA BLA BLA BLA BLA BLA BLA BLA BLA BLA BLA BLA 
BLA BLA BLA BLA BLA BLA BLA BLA BLA BLA BLA BLA BLA BLA BLA BLA BLA BLA BLA BLA 
BLA BLA BLA BLA BLA BLA BLA BLA BLA BLA BLA BLA BLA BLA BLA BLA BLA BLA BLA BLA 
BLA BLA BLA BLA BLA BLA BLA BLA BLA BLA BLA BLA BLA BLA BLA BLA BLA BLA BLA BLA 
BLA BLA BLA BLA BLA BLA BLA BLA BLA BLA BLA BLA BLA BLA BLA BLA BLA BLA BLA BLA 
BLA BLA BLA BLA BLA BLA BLA BLA BLA BLA BLA BLA BLA BLA BLA BLA BLA BLA BLA BLA 
BLA BLA BLA BLA BLA BLA BLA BLA BLA BLA BLA BLA BLA BLA BLA BLA BLA BLA BLA BLA 
BLA BLA BLA BLA BLA BLA BLA BLA BLA BLA BLA BLA BLA BLA BLA BLA BLA BLA BLA BLA 
BLA BLA BLA BLA BLA BLA BLA BLA BLA BLA BLA BLA BLA BLA BLA BLA BLA BLA BLA BLA 
BLA BLA BLA BLA BLA BLA BLA BLA BLA BLA BLA BLA BLA BLA BLA BLA BLA BLA BLA BLA 
BLA BLA BLA BLA BLA BLA BLA BLA BLA BLA BLA BLA BLA BLA BLA BLA BLA BLA BLA BLA 
BLA BLA BLA BLA BLA BLA BLA BLA BLA BLA BLA BLA BLA BLA BLA BLA BLA BLA BLA BLA 
BLA BLA BLA BLA BLA BLA BLA BLA BLA BLA BLA BLA BLA BLA BLA BLA BLA BLA BLA BLA 
BLA BLA BLA BLA BLA BLA BLA BLA BLA BLA BLA BLA BLA BLA BLA BLA BLA BLA BLA BLA 
BLA BLA BLA BLA BLA BLA BLA BLA BLA BLA BLA BLA BLA BLA BLA BLA BLA BLA BLA BLA 
BLA BLA BLA BLA BLA BLA BLA BLA BLA BLA BLA BLA BLA BLA BLA BLA BLA BLA BLA BLA 
BLA BLA BLA BLA BLA BLA BLA BLA BLA BLA BLA BLA BLA BLA BLA BLA BLA BLA BLA BLA 
BLA BLA BLA BLA BLA BLA BLA BLA BLA BLA BLA BLA BLA BLA BLA BLA BLA BLA BLA BLA 
BLA BLA BLA BLA BLA BLA BLA BLA BLA BLA BLA BLA BLA BLA BLA BLA BLA BLA BLA BLA 
BLA BLA BLA BLA BLA BLA BLA BLA BLA BLA BLA BLA BLA BLA BLA BLA BLA BLA BLA BLA 
BLA BLA BLA BLA BLA BLA BLA BLA BLA BLA BLA BLA BLA BLA BLA BLA BLA BLA BLA BLA 
BLA BLA BLA BLA BLA BLA BLA BLA BLA BLA BLA BLA BLA BLA BLA BLA BLA BLA BLA BLA 
BLA BLA BLA BLA BLA BLA BLA BLA BLA BLA BLA BLA BLA BLA BLA BLA BLA BLA BLA BLA 
BLA BLA BLA BLA BLA BLA BLA BLA BLA BLA BLA BLA BLA BLA BLA BLA BLA BLA BLA BLA 
BLA BLA BLA BLA BLA BLA BLA BLA BLA BLA BLA BLA BLA BLA BLA BLA BLA BLA BLA BLA 
BLA BLA BLA BLA BLA BLA BLA BLA BLA BLA BLA BLA BLA BLA BLA BLA BLA BLA BLA BLA 
BLA BLA BLA BLA BLA BLA BLA BLA BLA BLA BLA BLA BLA BLA BLA BLA BLA BLA BLA BLA 
BLA BLA BLA BLA BLA BLA BLA BLA BLA BLA BLA BLA BLA BLA BLA BLA BLA BLA BLA BLA 
BLA BLA BLA BLA BLA BLA BLA BLA BLA BLA BLA BLA BLA BLA BLA BLA BLA BLA BLA BLA 
BLA BLA BLA BLA BLA BLA BLA BLA BLA BLA BLA BLA BLA BLA BLA BLA BLA BLA BLA BLA 
BLA BLA BLA BLA BLA BLA BLA BLA BLA BLA BLA BLA BLA BLA BLA BLA BLA BLA BLA BLA 
BLA BLA BLA BLA BLA BLA BLA BLA BLA BLA BLA BLA BLA BLA BLA BLA BLA BLA BLA BLA 
BLA BLA BLA BLA BLA BLA BLA BLA BLA BLA BLA BLA BLA BLA BLA BLA BLA BLA BLA BLA 
BLA BLA BLA BLA BLA BLA BLA BLA BLA BLA BLA BLA BLA BLA BLA BLA BLA BLA BLA BLA 
BLA BLA BLA BLA BLA BLA BLA BLA BLA BLA BLA BLA BLA BLA BLA BLA BLA BLA BLA BLA 
BLA BLA BLA BLA BLA BLA BLA BLA BLA BLA BLA BLA BLA BLA BLA BLA BLA BLA BLA BLA 
BLA BLA BLA BLA BLA BLA BLA BLA BLA BLA BLA BLA BLA BLA BLA BLA BLA BLA BLA BLA 
BLA BLA BLA BLA BLA BLA BLA BLA BLA BLA BLA BLA BLA BLA BLA BLA BLA BLA BLA BLA 
BLA BLA BLA BLA BLA BLA BLA BLA BLA BLA BLA BLA BLA BLA BLA BLA BLA BLA BLA BLA 
BLA BLA BLA BLA BLA BLA BLA BLA BLA BLA BLA BLA BLA BLA BLA BLA BLA BLA BLA BLA 
BLA BLA BLA BLA BLA BLA BLA BLA BLA BLA BLA BLA BLA BLA BLA BLA BLA BLA BLA BLA 
BLA BLA BLA BLA BLA BLA BLA BLA BLA BLA BLA BLA BLA BLA BLA BLA BLA BLA BLA BLA 
BLA BLA BLA BLA BLA BLA BLA BLA BLA BLA BLA BLA BLA BLA BLA BLA BLA BLA BLA BLA 
BLA BLA BLA BLA BLA BLA BLA BLA BLA BLA BLA BLA BLA BLA BLA BLA BLA BLA BLA BLA 
BLA BLA BLA BLA BLA BLA BLA BLA BLA BLA BLA BLA BLA BLA BLA BLA BLA BLA BLA BLA 
BLA BLA BLA BLA BLA BLA BLA BLA BLA BLA BLA BLA BLA BLA BLA BLA BLA BLA BLA BLA 
BLA BLA BLA BLA BLA BLA BLA BLA BLA BLA BLA BLA BLA BLA BLA BLA BLA BLA BLA BLA 
BLA BLA BLA BLA BLA BLA BLA BLA BLA BLA BLA BLA BLA BLA BLA BLA BLA BLA BLA BLA 
BLA BLA BLA BLA BLA BLA BLA BLA BLA BLA BLA BLA BLA BLA BLA BLA BLA BLA BLA BLA 
BLA BLA BLA BLA BLA BLA BLA BLA BLA BLA BLA BLA BLA BLA BLA BLA BLA BLA BLA BLA 
BLA BLA BLA BLA BLA BLA BLA BLA BLA BLA BLA BLA BLA BLA BLA BLA BLA BLA BLA BLA 
BLA BLA BLA BLA BLA BLA BLA BLA BLA BLA BLA BLA BLA BLA BLA BLA BLA BLA BLA BLA 
BLA BLA BLA BLA BLA BLA BLA BLA BLA BLA BLA BLA BLA BLA BLA BLA BLA BLA BLA BLA 
BLA BLA BLA BLA BLA BLA BLA BLA BLA BLA BLA BLA BLA BLA BLA BLA BLA BLA BLA BLA 
BLA BLA BLA BLA BLA BLA BLA BLA BLA BLA BLA BLA BLA BLA BLA BLA BLA BLA BLA BLA 
BLA BLA BLA BLA BLA BLA BLA BLA BLA BLA BLA BLA BLA BLA BLA BLA BLA BLA BLA BLA 
BLA BLA BLA BLA BLA BLA BLA BLA BLA BLA BLA BLA BLA BLA BLA BLA BLA BLA BLA BLA 
BLA BLA BLA BLA BLA BLA BLA BLA BLA BLA BLA BLA BLA BLA BLA BLA BLA BLA BLA BLA 
BLA BLA BLA BLA BLA BLA BLA BLA BLA BLA BLA BLA BLA BLA BLA BLA BLA BLA BLA BLA 
BLA BLA BLA BLA BLA BLA BLA BLA BLA BLA BLA BLA BLA BLA BLA BLA BLA BLA BLA BLA 
BLA BLA BLA BLA BLA BLA BLA BLA BLA BLA BLA BLA BLA BLA BLA BLA BLA BLA BLA BLA 
BLA BLA BLA BLA BLA BLA BLA BLA BLA BLA BLA BLA BLA BLA BLA BLA BLA BLA BLA BLA 
BLA BLA BLA BLA BLA BLA BLA BLA BLA BLA BLA BLA BLA BLA BLA BLA BLA BLA BLA BLA 
BLA BLA BLA BLA BLA BLA BLA BLA BLA BLA BLA BLA BLA BLA BLA BLA BLA BLA BLA BLA 
BLA BLA BLA BLA BLA BLA BLA BLA BLA BLA BLA BLA BLA BLA BLA BLA BLA BLA BLA BLA 
BLA BLA BLA BLA BLA BLA BLA BLA BLA BLA BLA BLA BLA BLA BLA BLA BLA BLA BLA BLA 
BLA BLA BLA BLA BLA BLA BLA BLA BLA BLA BLA BLA BLA BLA BLA BLA BLA BLA BLA BLA 
BLA BLA BLA BLA BLA BLA BLA BLA BLA BLA BLA BLA BLA BLA BLA BLA BLA BLA BLA BLA 
BLA BLA BLA BLA BLA BLA BLA BLA BLA BLA BLA BLA BLA BLA BLA BLA BLA BLA BLA BLA 
BLA BLA BLA BLA BLA BLA BLA BLA BLA BLA BLA BLA BLA BLA BLA BLA BLA BLA BLA BLA 
BLA BLA BLA BLA BLA BLA BLA BLA BLA BLA BLA BLA BLA BLA BLA BLA BLA BLA BLA BLA 
BLA BLA BLA BLA BLA BLA BLA BLA BLA BLA BLA BLA BLA BLA BLA BLA BLA BLA BLA BLA 
BLA BLA BLA BLA BLA BLA BLA BLA BLA BLA BLA BLA BLA BLA BLA BLA BLA BLA BLA BLA 
BLA BLA BLA BLA BLA BLA BLA BLA BLA BLA BLA BLA BLA BLA BLA BLA BLA BLA BLA BLA 
BLA BLA BLA BLA BLA BLA BLA BLA BLA BLA BLA BLA BLA BLA BLA BLA BLA BLA BLA BLA 
BLA BLA BLA BLA BLA BLA BLA BLA BLA BLA BLA BLA BLA BLA BLA BLA BLA BLA BLA BLA 
BLA BLA BLA BLA BLA BLA BLA BLA BLA BLA BLA BLA BLA BLA BLA BLA BLA BLA BLA BLA 
BLA BLA BLA BLA BLA BLA BLA BLA BLA BLA BLA BLA BLA BLA BLA BLA BLA BLA BLA BLA 
BLA BLA BLA BLA BLA BLA BLA BLA BLA BLA BLA BLA BLA BLA BLA BLA BLA BLA BLA BLA 
BLA BLA BLA BLA BLA BLA BLA BLA BLA BLA BLA BLA BLA BLA BLA BLA BLA BLA BLA BLA 
BLA BLA BLA BLA BLA BLA BLA BLA BLA BLA BLA BLA BLA BLA BLA BLA BLA BLA BLA BLA 
BLA BLA BLA BLA BLA BLA BLA BLA BLA BLA BLA BLA BLA BLA BLA BLA BLA BLA BLA BLA 
BLA BLA BLA BLA BLA BLA BLA BLA BLA BLA BLA BLA BLA BLA BLA BLA BLA BLA BLA BLA 
BLA BLA BLA BLA BLA BLA BLA BLA BLA BLA BLA BLA BLA BLA BLA BLA BLA BLA BLA BLA 
BLA BLA BLA BLA BLA BLA BLA BLA BLA BLA BLA BLA BLA BLA BLA BLA BLA BLA BLA BLA 
BLA BLA BLA BLA BLA BLA BLA BLA BLA BLA BLA BLA BLA BLA BLA BLA BLA BLA BLA BLA 
BLA BLA BLA BLA BLA BLA BLA BLA BLA BLA BLA BLA BLA BLA BLA BLA BLA BLA BLA BLA 
BLA BLA BLA BLA BLA BLA BLA BLA BLA BLA BLA BLA BLA BLA BLA BLA BLA BLA BLA BLA 
BLA BLA BLA BLA BLA BLA BLA BLA BLA BLA BLA BLA BLA BLA BLA BLA BLA BLA BLA BLA 
BLA BLA BLA BLA BLA BLA BLA BLA BLA BLA BLA BLA BLA BLA BLA BLA BLA BLA BLA BLA 
BLA BLA BLA BLA BLA BLA BLA BLA BLA BLA BLA BLA BLA BLA BLA BLA BLA BLA BLA BLA 
BLA BLA BLA BLA BLA BLA BLA BLA BLA BLA BLA BLA BLA BLA BLA BLA BLA BLA BLA BLA 
BLA BLA BLA BLA BLA BLA BLA BLA BLA BLA BLA BLA BLA BLA BLA BLA BLA BLA BLA BLA 
BLA BLA BLA BLA BLA BLA BLA BLA BLA BLA BLA BLA BLA BLA BLA BLA BLA BLA BLA BLA 
BLA BLA BLA BLA BLA BLA BLA BLA BLA BLA BLA BLA BLA BLA BLA BLA BLA BLA BLA BLA 
BLA BLA BLA BLA BLA BLA BLA BLA BLA BLA BLA BLA BLA BLA BLA BLA BLA BLA BLA BLA 
BLA BLA BLA BLA BLA BLA BLA BLA BLA BLA BLA BLA BLA BLA BLA BLA BLA BLA BLA BLA 
BLA BLA BLA BLA BLA BLA BLA BLA BLA BLA BLA BLA BLA BLA BLA BLA BLA BLA BLA BLA 
BLA BLA BLA BLA BLA BLA BLA BLA BLA BLA BLA BLA BLA BLA BLA BLA BLA BLA BLA BLA 
BLA BLA BLA BLA BLA BLA BLA BLA BLA BLA BLA BLA BLA BLA BLA BLA BLA BLA BLA BLA 
BLA BLA BLA BLA BLA BLA BLA BLA BLA BLA BLA BLA BLA BLA BLA BLA BLA BLA BLA BLA 
BLA BLA BLA BLA BLA BLA BLA BLA BLA BLA BLA BLA BLA BLA BLA BLA BLA BLA BLA BLA 
BLA BLA BLA BLA BLA BLA BLA BLA BLA BLA BLA BLA BLA BLA BLA BLA BLA BLA BLA BLA 
BLA BLA BLA BLA BLA BLA BLA BLA BLA BLA BLA BLA BLA BLA BLA BLA BLA BLA BLA BLA 
BLA BLA BLA BLA BLA BLA BLA BLA BLA BLA BLA BLA BLA BLA BLA BLA BLA BLA BLA BLA 
BLA BLA BLA BLA BLA BLA BLA BLA BLA BLA BLA BLA BLA BLA BLA BLA BLA BLA BLA BLA 
BLA BLA BLA BLA BLA BLA BLA BLA BLA BLA BLA BLA BLA BLA BLA BLA BLA BLA BLA BLA 
BLA BLA BLA BLA BLA BLA BLA BLA BLA BLA BLA BLA BLA BLA BLA BLA BLA BLA BLA BLA 
BLA BLA BLA BLA BLA BLA BLA BLA BLA BLA BLA BLA BLA BLA BLA BLA BLA BLA BLA BLA 
BLA BLA BLA BLA BLA BLA BLA BLA BLA BLA BLA BLA BLA BLA BLA BLA BLA BLA BLA BLA 
BLA BLA BLA BLA BLA BLA BLA BLA BLA BLA BLA BLA BLA BLA BLA BLA BLA BLA BLA BLA 
BLA BLA BLA BLA BLA BLA BLA BLA BLA BLA BLA BLA BLA BLA BLA BLA BLA BLA BLA BLA 
BLA BLA BLA BLA BLA BLA BLA BLA BLA BLA BLA BLA BLA BLA BLA BLA BLA BLA BLA BLA 
BLA BLA BLA BLA BLA BLA BLA BLA BLA BLA BLA BLA BLA BLA BLA BLA BLA BLA BLA BLA 
BLA BLA BLA BLA BLA BLA BLA BLA BLA BLA BLA BLA BLA BLA BLA BLA BLA BLA BLA BLA 
BLA BLA BLA BLA BLA BLA BLA BLA BLA BLA BLA BLA BLA BLA BLA BLA BLA BLA BLA BLA 
BLA BLA BLA BLA BLA BLA BLA BLA BLA BLA BLA BLA BLA BLA BLA BLA BLA BLA BLA BLA 
BLA BLA BLA BLA BLA BLA BLA BLA BLA BLA BLA BLA BLA BLA BLA BLA BLA BLA BLA BLA 
BLA BLA BLA BLA BLA BLA BLA BLA BLA BLA BLA BLA BLA BLA BLA BLA BLA BLA BLA BLA 
BLA BLA BLA BLA BLA BLA BLA BLA BLA BLA BLA BLA BLA BLA BLA BLA BLA BLA BLA BLA 
BLA BLA BLA BLA BLA BLA BLA BLA BLA BLA BLA BLA BLA BLA BLA BLA BLA BLA BLA BLA 
BLA BLA BLA BLA BLA BLA BLA BLA BLA BLA BLA BLA BLA BLA BLA BLA BLA BLA BLA BLA 
BLA BLA BLA BLA BLA BLA BLA BLA BLA BLA BLA BLA BLA BLA BLA BLA BLA BLA BLA BLA 
BLA BLA BLA BLA BLA BLA BLA BLA BLA BLA BLA BLA BLA BLA BLA BLA BLA BLA BLA BLA 
BLA BLA BLA BLA BLA BLA BLA BLA BLA BLA BLA BLA BLA BLA BLA BLA BLA BLA BLA BLA 
BLA BLA BLA BLA BLA BLA BLA BLA BLA BLA BLA BLA BLA BLA BLA BLA BLA BLA BLA BLA 
BLA BLA BLA BLA BLA BLA BLA BLA BLA BLA BLA BLA BLA BLA BLA BLA BLA BLA BLA BLA 
BLA BLA BLA BLA BLA BLA BLA BLA BLA BLA BLA BLA BLA BLA BLA BLA BLA BLA BLA BLA 
BLA BLA BLA BLA BLA BLA BLA BLA BLA BLA BLA BLA BLA BLA BLA BLA BLA BLA BLA BLA 
BLA BLA BLA BLA BLA BLA BLA BLA BLA BLA BLA BLA BLA BLA BLA BLA BLA BLA BLA BLA 
BLA BLA BLA BLA BLA BLA BLA BLA BLA BLA BLA BLA BLA BLA BLA BLA BLA BLA BLA BLA 
BLA BLA BLA BLA BLA BLA BLA BLA BLA BLA BLA BLA BLA BLA BLA BLA BLA BLA BLA BLA 
BLA BLA BLA BLA BLA BLA BLA BLA BLA BLA BLA BLA BLA BLA BLA BLA BLA BLA BLA BLA 
BLA BLA BLA BLA BLA BLA BLA BLA BLA BLA BLA BLA BLA BLA BLA BLA BLA BLA BLA BLA 
BLA BLA BLA BLA BLA BLA BLA BLA BLA BLA BLA BLA BLA BLA BLA BLA BLA BLA BLA BLA 
BLA BLA BLA BLA BLA BLA BLA BLA BLA BLA BLA BLA BLA BLA BLA BLA BLA BLA BLA BLA 
BLA BLA BLA BLA BLA BLA BLA BLA BLA BLA BLA BLA BLA BLA BLA BLA BLA BLA BLA BLA 
BLA BLA BLA BLA BLA BLA BLA BLA BLA BLA BLA BLA BLA BLA BLA BLA BLA BLA BLA BLA 
BLA BLA BLA BLA BLA BLA BLA BLA BLA BLA BLA BLA BLA BLA BLA BLA BLA BLA BLA BLA 
BLA BLA BLA BLA BLA BLA BLA BLA BLA BLA BLA BLA BLA BLA BLA BLA BLA BLA BLA BLA 
BLA BLA BLA BLA BLA BLA BLA BLA BLA BLA BLA BLA BLA BLA BLA BLA BLA BLA BLA BLA 
BLA BLA BLA BLA BLA BLA BLA BLA BLA BLA BLA BLA BLA BLA BLA BLA BLA BLA BLA BLA 
BLA BLA BLA BLA BLA BLA BLA BLA BLA BLA BLA BLA BLA BLA BLA BLA BLA BLA BLA BLA 
BLA BLA BLA BLA BLA BLA BLA BLA BLA BLA BLA BLA BLA BLA BLA BLA BLA BLA BLA BLA 
BLA BLA BLA BLA BLA BLA BLA BLA BLA BLA BLA BLA BLA BLA BLA BLA BLA BLA BLA BLA 
BLA BLA BLA BLA BLA BLA BLA BLA BLA BLA BLA BLA BLA BLA BLA BLA BLA BLA BLA BLA 
BLA BLA BLA BLA BLA BLA BLA BLA BLA BLA BLA BLA BLA BLA BLA BLA BLA BLA BLA BLA 
BLA BLA BLA BLA BLA BLA BLA BLA BLA BLA BLA BLA BLA BLA BLA BLA BLA BLA BLA BLA 
BLA BLA BLA BLA BLA BLA BLA BLA BLA BLA BLA BLA BLA BLA BLA BLA BLA BLA BLA BLA 
BLA BLA BLA BLA BLA BLA BLA BLA BLA BLA BLA BLA BLA BLA BLA BLA BLA BLA BLA BLA 
BLA BLA BLA BLA BLA BLA BLA BLA BLA BLA BLA BLA BLA BLA BLA BLA BLA BLA BLA BLA 
BLA BLA BLA BLA BLA BLA BLA BLA BLA BLA BLA BLA BLA BLA BLA BLA BLA BLA BLA BLA 
BLA BLA BLA BLA BLA BLA BLA BLA BLA BLA BLA BLA BLA BLA BLA BLA BLA BLA BLA BLA 
BLA BLA BLA BLA BLA BLA BLA BLA BLA BLA BLA BLA BLA BLA BLA BLA BLA BLA BLA BLA 
BLA BLA BLA BLA BLA BLA BLA BLA BLA BLA BLA BLA BLA BLA BLA BLA BLA BLA BLA BLA 
BLA BLA BLA BLA BLA BLA BLA BLA BLA BLA BLA BLA BLA BLA BLA BLA BLA BLA BLA BLA 
BLA BLA BLA BLA BLA BLA BLA BLA BLA BLA BLA BLA BLA BLA BLA BLA BLA BLA BLA BLA 
BLA BLA BLA BLA BLA BLA BLA BLA BLA BLA BLA BLA BLA BLA BLA BLA BLA BLA BLA BLA 
BLA BLA BLA BLA BLA BLA BLA BLA BLA BLA BLA BLA BLA BLA BLA BLA BLA BLA BLA BLA 
BLA BLA BLA BLA BLA BLA BLA BLA BLA BLA BLA BLA BLA BLA BLA BLA BLA BLA BLA BLA 
BLA BLA BLA BLA BLA BLA BLA BLA BLA BLA BLA BLA BLA BLA BLA BLA BLA BLA BLA BLA 
BLA BLA BLA BLA BLA BLA BLA BLA BLA BLA BLA BLA BLA BLA BLA BLA BLA BLA BLA BLA 
BLA BLA BLA BLA BLA BLA BLA BLA BLA BLA BLA BLA BLA BLA BLA BLA BLA BLA BLA BLA 
BLA BLA BLA BLA BLA BLA BLA BLA BLA BLA BLA BLA BLA BLA BLA BLA BLA BLA BLA BLA 
BLA BLA BLA BLA BLA BLA BLA BLA BLA BLA BLA BLA BLA BLA BLA BLA BLA BLA BLA BLA 
BLA BLA BLA BLA BLA BLA BLA BLA BLA BLA BLA BLA BLA BLA BLA BLA BLA BLA BLA BLA 
BLA BLA BLA BLA BLA BLA BLA BLA BLA BLA BLA BLA BLA BLA BLA BLA BLA BLA BLA BLA 
BLA BLA BLA BLA BLA BLA BLA BLA BLA BLA BLA BLA BLA BLA BLA BLA BLA BLA BLA BLA 
BLA BLA BLA BLA BLA BLA BLA BLA BLA BLA BLA BLA BLA BLA BLA BLA BLA BLA BLA BLA 
BLA BLA BLA BLA BLA BLA BLA BLA BLA BLA BLA BLA BLA BLA BLA BLA BLA BLA BLA BLA 
BLA BLA BLA BLA BLA BLA BLA BLA BLA BLA BLA BLA BLA BLA BLA BLA BLA BLA BLA BLA 
BLA BLA BLA BLA BLA BLA BLA BLA BLA BLA BLA BLA BLA BLA BLA BLA BLA BLA BLA BLA 
BLA BLA BLA BLA BLA BLA BLA BLA BLA BLA BLA BLA BLA BLA BLA BLA BLA BLA BLA BLA 
BLA BLA BLA BLA BLA BLA BLA BLA BLA BLA BLA BLA BLA BLA BLA BLA BLA BLA BLA BLA 
BLA BLA BLA BLA BLA BLA BLA BLA BLA BLA BLA BLA BLA BLA BLA BLA BLA BLA BLA BLA 
BLA BLA BLA BLA BLA BLA BLA BLA BLA BLA BLA BLA BLA BLA BLA BLA BLA BLA BLA BLA 
BLA BLA BLA BLA BLA BLA BLA BLA BLA BLA BLA BLA BLA BLA BLA BLA BLA BLA BLA BLA 
BLA BLA BLA BLA BLA BLA BLA BLA BLA BLA BLA BLA BLA BLA BLA BLA BLA BLA BLA BLA 
BLA BLA BLA BLA BLA BLA BLA BLA BLA BLA BLA BLA BLA BLA BLA BLA BLA BLA BLA BLA 
BLA BLA BLA BLA BLA BLA BLA BLA BLA BLA BLA BLA BLA BLA BLA BLA BLA BLA BLA BLA 
BLA BLA BLA BLA BLA BLA BLA BLA BLA BLA BLA BLA BLA BLA BLA BLA BLA BLA BLA BLA 
BLA BLA BLA BLA BLA BLA BLA BLA BLA BLA BLA BLA BLA BLA BLA BLA BLA BLA BLA BLA 
BLA BLA BLA BLA BLA BLA BLA BLA BLA BLA BLA BLA BLA BLA BLA BLA BLA BLA BLA BLA 
BLA BLA BLA BLA BLA BLA BLA BLA BLA BLA BLA BLA BLA BLA BLA BLA BLA BLA BLA BLA 
BLA BLA BLA BLA BLA BLA BLA BLA BLA BLA BLA BLA BLA BLA BLA BLA BLA BLA BLA BLA 
BLA BLA BLA BLA BLA BLA BLA BLA BLA BLA BLA BLA BLA BLA BLA BLA BLA BLA BLA BLA 
BLA BLA BLA BLA BLA BLA BLA BLA BLA BLA BLA BLA BLA BLA BLA BLA BLA BLA BLA BLA 
BLA BLA BLA BLA BLA BLA BLA BLA BLA BLA BLA BLA BLA BLA BLA BLA BLA BLA BLA BLA 
BLA BLA BLA BLA BLA BLA BLA BLA BLA BLA BLA BLA BLA BLA BLA BLA BLA BLA BLA BLA 
BLA BLA BLA BLA BLA BLA BLA BLA BLA BLA BLA BLA BLA BLA BLA BLA BLA BLA BLA BLA 
BLA BLA BLA BLA BLA BLA BLA BLA BLA BLA BLA BLA BLA BLA BLA BLA BLA BLA BLA BLA 
BLA BLA BLA BLA BLA BLA BLA BLA BLA BLA BLA BLA BLA BLA BLA BLA BLA BLA BLA BLA 
BLA BLA BLA BLA BLA BLA BLA BLA BLA BLA BLA BLA BLA BLA BLA BLA BLA BLA BLA BLA 
BLA BLA BLA BLA BLA BLA BLA BLA BLA BLA BLA BLA BLA BLA BLA BLA BLA BLA BLA BLA 
BLA BLA BLA BLA BLA BLA BLA BLA BLA BLA BLA BLA BLA BLA BLA BLA BLA BLA BLA BLA 
BLA BLA BLA BLA BLA BLA BLA BLA BLA BLA BLA BLA BLA BLA BLA BLA BLA BLA BLA BLA 
BLA BLA BLA BLA BLA BLA BLA BLA BLA BLA BLA BLA BLA BLA BLA BLA BLA BLA BLA BLA 
BLA BLA BLA BLA BLA BLA BLA BLA BLA BLA BLA BLA BLA BLA BLA BLA BLA BLA BLA BLA 
BLA BLA BLA BLA BLA BLA BLA BLA BLA BLA BLA BLA BLA BLA BLA BLA BLA BLA BLA BLA 
BLA BLA BLA BLA BLA BLA BLA BLA BLA BLA BLA BLA BLA BLA BLA BLA BLA BLA BLA BLA 
BLA BLA BLA BLA BLA BLA BLA BLA BLA BLA BLA BLA BLA BLA BLA BLA BLA BLA BLA BLA 
BLA BLA BLA BLA BLA BLA BLA BLA BLA BLA BLA BLA BLA BLA BLA BLA BLA BLA BLA BLA 
BLA BLA BLA BLA BLA BLA BLA BLA BLA BLA BLA BLA BLA BLA BLA BLA BLA BLA BLA BLA 
BLA BLA BLA BLA BLA BLA BLA BLA BLA BLA BLA BLA BLA BLA BLA BLA BLA BLA BLA BLA 
BLA BLA BLA BLA BLA BLA BLA BLA BLA BLA BLA BLA BLA BLA BLA BLA BLA BLA BLA BLA 
BLA BLA BLA BLA BLA BLA BLA BLA BLA BLA BLA BLA BLA BLA BLA BLA BLA BLA BLA BLA 
BLA BLA BLA BLA BLA BLA BLA BLA BLA BLA BLA BLA BLA BLA BLA BLA BLA BLA BLA BLA 
BLA BLA BLA BLA BLA BLA BLA BLA BLA BLA BLA BLA BLA BLA BLA BLA BLA BLA BLA BLA 
BLA BLA BLA BLA BLA BLA BLA BLA BLA BLA BLA BLA BLA BLA BLA BLA BLA BLA BLA BLA 
BLA BLA BLA BLA BLA BLA BLA BLA BLA BLA BLA BLA BLA BLA BLA BLA BLA BLA BLA BLA 
BLA BLA BLA BLA BLA BLA BLA BLA BLA BLA BLA BLA BLA BLA BLA BLA BLA BLA BLA BLA 
BLA BLA BLA BLA BLA BLA BLA BLA BLA BLA BLA BLA BLA BLA BLA BLA BLA BLA BLA BLA 
BLA BLA BLA BLA BLA BLA BLA BLA BLA BLA BLA BLA BLA BLA BLA BLA BLA BLA BLA BLA 
BLA BLA BLA BLA BLA BLA BLA BLA BLA BLA BLA BLA BLA BLA BLA BLA BLA BLA BLA BLA 
BLA BLA BLA BLA BLA BLA BLA BLA BLA BLA BLA BLA BLA BLA BLA BLA BLA BLA BLA BLA 
BLA BLA BLA BLA BLA BLA BLA BLA BLA BLA BLA BLA BLA BLA BLA BLA BLA BLA BLA BLA 
BLA BLA BLA BLA BLA BLA BLA BLA BLA BLA BLA BLA BLA BLA BLA BLA BLA BLA BLA BLA 
BLA BLA BLA BLA BLA BLA BLA BLA BLA BLA BLA BLA BLA BLA BLA BLA BLA BLA BLA BLA 
BLA BLA BLA BLA BLA BLA BLA BLA BLA BLA BLA BLA BLA BLA BLA BLA BLA BLA BLA BLA 
BLA BLA BLA BLA BLA BLA BLA BLA BLA BLA BLA BLA BLA BLA BLA BLA BLA BLA BLA BLA 
BLA BLA BLA BLA BLA BLA BLA BLA BLA BLA BLA BLA BLA BLA BLA BLA BLA BLA BLA BLA 
BLA BLA BLA BLA BLA BLA BLA BLA BLA BLA BLA BLA BLA BLA BLA BLA BLA BLA BLA BLA 
BLA BLA BLA BLA BLA BLA BLA BLA BLA BLA BLA BLA BLA BLA BLA BLA BLA BLA BLA BLA 
BLA BLA BLA BLA BLA BLA BLA BLA BLA BLA BLA BLA BLA BLA BLA BLA BLA BLA BLA BLA 
BLA BLA BLA BLA BLA BLA BLA BLA BLA BLA BLA BLA BLA BLA BLA BLA BLA BLA BLA BLA 
BLA BLA BLA BLA BLA BLA BLA BLA BLA BLA BLA BLA BLA BLA BLA BLA BLA BLA BLA BLA 
BLA BLA BLA BLA BLA BLA BLA BLA BLA BLA BLA BLA BLA BLA BLA BLA BLA BLA BLA BLA 
BLA BLA BLA BLA BLA BLA BLA BLA BLA BLA BLA BLA BLA BLA BLA BLA BLA BLA BLA BLA 
BLA BLA BLA BLA BLA BLA BLA BLA BLA BLA BLA BLA BLA BLA BLA BLA BLA BLA BLA BLA 
BLA BLA BLA BLA BLA BLA BLA BLA BLA BLA BLA BLA BLA BLA BLA BLA BLA BLA BLA BLA 
BLA BLA BLA BLA BLA BLA BLA BLA BLA BLA BLA BLA BLA BLA BLA BLA BLA BLA BLA BLA 
BLA BLA BLA BLA BLA BLA BLA BLA BLA BLA BLA BLA BLA BLA BLA BLA BLA BLA BLA BLA 
BLA BLA BLA BLA BLA BLA BLA BLA BLA BLA BLA BLA BLA BLA BLA BLA BLA BLA BLA BLA 
BLA BLA BLA BLA BLA BLA BLA BLA BLA BLA BLA BLA BLA BLA BLA BLA BLA BLA BLA BLA 
BLA BLA BLA BLA BLA BLA BLA BLA BLA BLA BLA BLA BLA BLA BLA BLA BLA BLA BLA BLA 
BLA BLA BLA BLA BLA BLA BLA BLA BLA BLA BLA BLA BLA BLA BLA BLA BLA BLA BLA BLA 
BLA BLA BLA BLA BLA BLA BLA BLA BLA BLA BLA BLA BLA BLA BLA BLA BLA BLA BLA BLA 
BLA BLA BLA BLA BLA BLA BLA BLA BLA BLA BLA BLA BLA BLA BLA BLA BLA BLA BLA BLA 
BLA BLA BLA BLA BLA BLA BLA BLA BLA BLA BLA BLA BLA BLA BLA BLA BLA BLA BLA BLA 
BLA BLA BLA BLA BLA BLA BLA BLA BLA BLA BLA BLA BLA BLA BLA BLA BLA BLA BLA BLA 
BLA BLA BLA BLA BLA BLA BLA BLA BLA BLA BLA BLA BLA BLA BLA BLA BLA BLA BLA BLA 
BLA BLA BLA BLA BLA BLA BLA BLA BLA BLA BLA BLA BLA BLA BLA BLA BLA BLA BLA BLA 
BLA BLA BLA BLA BLA BLA BLA BLA BLA BLA BLA BLA BLA BLA BLA BLA BLA BLA BLA BLA 
BLA BLA BLA BLA BLA BLA BLA BLA BLA BLA BLA BLA BLA BLA BLA BLA BLA BLA BLA BLA 
BLA BLA BLA BLA BLA BLA BLA BLA BLA BLA BLA BLA BLA BLA BLA BLA BLA BLA BLA BLA 
BLA BLA BLA BLA BLA BLA BLA BLA BLA BLA BLA BLA BLA BLA BLA BLA BLA BLA BLA BLA 
BLA BLA BLA BLA BLA BLA BLA BLA BLA BLA BLA BLA BLA BLA BLA BLA BLA BLA BLA BLA 
BLA BLA BLA BLA BLA BLA BLA BLA BLA BLA BLA BLA BLA BLA BLA BLA BLA BLA BLA BLA 
BLA BLA BLA BLA BLA BLA BLA BLA BLA BLA BLA BLA BLA BLA BLA BLA BLA BLA BLA BLA 
BLA BLA BLA BLA BLA BLA BLA BLA BLA BLA BLA BLA BLA BLA BLA BLA BLA BLA BLA BLA 
BLA BLA BLA BLA BLA BLA BLA BLA BLA BLA BLA BLA BLA BLA BLA BLA BLA BLA BLA BLA 
BLA BLA BLA BLA BLA BLA BLA BLA BLA BLA BLA BLA BLA BLA BLA BLA BLA BLA BLA BLA 
BLA BLA BLA BLA BLA BLA BLA BLA BLA BLA BLA BLA BLA BLA BLA BLA BLA BLA BLA BLA 
BLA BLA BLA BLA BLA BLA BLA BLA BLA BLA BLA BLA BLA BLA BLA BLA BLA BLA BLA BLA 
BLA BLA BLA BLA BLA BLA BLA BLA BLA BLA BLA BLA BLA BLA BLA BLA BLA BLA BLA BLA 
BLA BLA BLA BLA BLA BLA BLA BLA BLA BLA BLA BLA BLA BLA BLA BLA BLA BLA BLA BLA 
BLA BLA BLA BLA BLA BLA BLA BLA BLA BLA BLA BLA BLA BLA BLA BLA BLA BLA BLA BLA 
BLA BLA BLA BLA BLA BLA BLA BLA BLA BLA BLA BLA BLA BLA BLA BLA BLA BLA BLA BLA 
BLA BLA BLA BLA BLA BLA BLA BLA BLA BLA BLA BLA BLA BLA BLA BLA BLA BLA BLA BLA 
BLA BLA BLA BLA BLA BLA BLA BLA BLA BLA BLA BLA BLA BLA BLA BLA BLA BLA BLA BLA 
BLA BLA BLA BLA BLA BLA BLA BLA BLA BLA BLA BLA BLA BLA BLA BLA BLA BLA BLA BLA 
BLA BLA BLA BLA BLA BLA BLA BLA BLA BLA BLA BLA BLA BLA BLA BLA BLA BLA BLA BLA 
BLA BLA BLA BLA BLA BLA BLA BLA BLA BLA BLA BLA BLA BLA BLA BLA BLA BLA BLA BLA 
BLA BLA BLA BLA BLA BLA BLA BLA BLA BLA BLA BLA BLA BLA BLA BLA BLA BLA BLA BLA 
BLA BLA BLA BLA BLA BLA BLA BLA BLA BLA BLA BLA BLA BLA BLA BLA BLA BLA BLA BLA 
BLA BLA BLA BLA BLA BLA BLA BLA BLA BLA BLA BLA BLA BLA BLA BLA BLA BLA BLA BLA 
BLA BLA BLA BLA BLA BLA BLA BLA BLA BLA BLA BLA BLA BLA BLA BLA BLA BLA BLA BLA 
BLA BLA BLA BLA BLA BLA BLA BLA BLA BLA BLA BLA BLA BLA BLA BLA BLA BLA BLA BLA 
BLA BLA BLA BLA BLA BLA BLA BLA BLA BLA BLA BLA BLA BLA BLA BLA BLA BLA BLA BLA 
BLA BLA BLA BLA BLA BLA BLA BLA BLA BLA BLA BLA BLA BLA BLA BLA BLA BLA BLA BLA 
BLA BLA BLA BLA BLA BLA BLA BLA BLA BLA BLA BLA BLA BLA BLA BLA BLA BLA BLA BLA 
BLA BLA BLA BLA BLA BLA BLA BLA BLA BLA BLA BLA BLA BLA BLA BLA BLA BLA BLA BLA 
BLA BLA BLA BLA BLA BLA BLA BLA BLA BLA BLA BLA BLA BLA BLA BLA BLA BLA BLA BLA 
BLA BLA BLA BLA BLA BLA BLA BLA BLA BLA BLA BLA BLA BLA BLA BLA BLA BLA BLA BLA 
BLA BLA BLA BLA BLA BLA BLA BLA BLA BLA BLA BLA BLA BLA BLA BLA BLA BLA BLA BLA 
BLA BLA BLA BLA BLA BLA BLA BLA BLA BLA BLA BLA BLA BLA BLA BLA BLA BLA BLA BLA 
BLA BLA BLA BLA BLA BLA BLA BLA BLA BLA BLA BLA BLA BLA BLA BLA BLA BLA BLA BLA 
BLA BLA BLA BLA BLA BLA BLA BLA BLA BLA BLA BLA BLA BLA BLA BLA BLA BLA BLA BLA 
BLA BLA BLA BLA BLA BLA BLA BLA BLA BLA BLA BLA BLA BLA BLA BLA BLA BLA BLA BLA 
BLA BLA BLA BLA BLA BLA BLA BLA BLA BLA BLA BLA BLA BLA BLA BLA BLA BLA BLA BLA 
BLA BLA BLA BLA BLA BLA BLA BLA BLA BLA BLA BLA BLA BLA BLA BLA BLA BLA BLA BLA 
BLA BLA BLA BLA BLA BLA BLA BLA BLA BLA BLA BLA BLA BLA BLA BLA BLA BLA BLA BLA 
BLA BLA BLA BLA BLA BLA BLA BLA BLA BLA BLA BLA BLA BLA BLA BLA BLA BLA BLA BLA 
BLA BLA BLA BLA BLA BLA BLA BLA BLA BLA BLA BLA BLA BLA BLA BLA BLA BLA BLA BLA 
BLA BLA BLA BLA BLA BLA BLA BLA BLA BLA BLA BLA BLA BLA BLA BLA BLA BLA BLA BLA 
BLA BLA BLA BLA BLA BLA BLA BLA BLA BLA BLA BLA BLA BLA BLA BLA BLA BLA BLA BLA 
BLA BLA BLA BLA BLA BLA BLA BLA BLA BLA BLA BLA BLA BLA BLA BLA BLA BLA BLA BLA 
BLA BLA BLA BLA BLA BLA BLA BLA BLA BLA BLA BLA BLA BLA BLA BLA BLA BLA BLA BLA 
BLA BLA BLA BLA BLA BLA BLA BLA BLA BLA BLA BLA BLA BLA BLA BLA BLA BLA BLA BLA 
BLA BLA BLA BLA BLA BLA BLA BLA BLA BLA BLA BLA BLA BLA BLA BLA BLA BLA BLA BLA 
BLA BLA BLA BLA BLA BLA BLA BLA BLA BLA BLA BLA BLA BLA BLA BLA BLA BLA BLA BLA 
BLA BLA BLA BLA BLA BLA BLA BLA BLA BLA BLA BLA BLA BLA BLA BLA BLA BLA BLA BLA 
BLA BLA BLA BLA BLA BLA BLA BLA BLA BLA BLA BLA BLA BLA BLA BLA BLA BLA BLA BLA 
BLA BLA BLA BLA BLA BLA BLA BLA BLA BLA BLA BLA BLA BLA BLA BLA BLA BLA BLA BLA 
BLA BLA BLA BLA BLA BLA BLA BLA BLA BLA BLA BLA BLA BLA BLA BLA BLA BLA BLA BLA 
BLA BLA BLA BLA BLA BLA BLA BLA BLA BLA BLA BLA BLA BLA BLA BLA BLA BLA BLA BLA 
BLA BLA BLA BLA BLA BLA BLA BLA BLA BLA BLA BLA BLA BLA BLA BLA BLA BLA BLA BLA 
BLA BLA BLA BLA BLA BLA BLA BLA BLA BLA BLA BLA BLA BLA BLA BLA BLA BLA BLA BLA 
BLA BLA BLA BLA BLA BLA BLA BLA BLA BLA BLA BLA BLA BLA BLA BLA BLA BLA BLA BLA 
BLA BLA BLA BLA BLA BLA BLA BLA BLA BLA BLA BLA BLA BLA BLA BLA BLA BLA BLA BLA 
BLA BLA BLA BLA BLA BLA BLA BLA BLA BLA BLA BLA BLA BLA BLA BLA BLA BLA BLA BLA 
BLA BLA BLA BLA BLA BLA BLA BLA BLA BLA BLA BLA BLA BLA BLA BLA BLA BLA BLA BLA 
BLA BLA BLA BLA BLA BLA BLA BLA BLA BLA BLA BLA BLA BLA BLA BLA BLA BLA BLA BLA 
BLA BLA BLA BLA BLA BLA BLA BLA BLA BLA BLA BLA BLA BLA BLA BLA BLA BLA BLA BLA 
BLA BLA BLA BLA BLA BLA BLA BLA BLA BLA BLA BLA BLA BLA BLA BLA BLA BLA BLA BLA 
BLA BLA BLA BLA BLA BLA BLA BLA BLA BLA BLA BLA BLA BLA BLA BLA BLA BLA BLA BLA 
BLA BLA BLA BLA BLA BLA BLA BLA BLA BLA BLA BLA BLA BLA BLA BLA BLA BLA BLA BLA 
BLA BLA BLA BLA BLA BLA BLA BLA BLA BLA BLA BLA BLA BLA BLA BLA BLA BLA BLA BLA 
BLA BLA BLA BLA BLA BLA BLA BLA BLA BLA BLA BLA BLA BLA BLA BLA BLA BLA BLA BLA 
BLA BLA BLA BLA BLA BLA BLA BLA BLA BLA BLA BLA BLA BLA BLA BLA BLA BLA BLA BLA 
BLA BLA BLA BLA BLA BLA BLA BLA BLA BLA BLA BLA BLA BLA BLA BLA BLA BLA BLA BLA 
BLA BLA BLA BLA BLA BLA BLA BLA BLA BLA BLA BLA BLA BLA BLA BLA BLA BLA BLA BLA 
BLA BLA BLA BLA BLA BLA BLA BLA BLA BLA BLA BLA BLA BLA BLA BLA BLA BLA BLA BLA 
BLA BLA BLA BLA BLA BLA BLA BLA BLA BLA BLA BLA BLA BLA BLA BLA BLA BLA BLA BLA 
BLA BLA BLA BLA BLA BLA BLA BLA BLA BLA BLA BLA BLA BLA BLA BLA BLA BLA BLA BLA 
BLA BLA BLA BLA BLA BLA BLA BLA BLA BLA BLA BLA BLA BLA BLA BLA BLA BLA BLA BLA 
BLA BLA BLA BLA BLA BLA BLA BLA BLA BLA BLA BLA BLA BLA BLA BLA BLA BLA BLA BLA 
BLA BLA BLA BLA BLA BLA BLA BLA BLA BLA BLA BLA BLA BLA BLA BLA BLA BLA BLA BLA 
BLA BLA BLA BLA BLA BLA BLA BLA BLA BLA BLA BLA BLA BLA BLA BLA BLA BLA BLA BLA 
BLA BLA BLA BLA BLA BLA BLA BLA BLA BLA BLA BLA BLA BLA BLA BLA BLA BLA BLA BLA 
BLA BLA BLA BLA BLA BLA BLA BLA BLA BLA BLA BLA BLA BLA BLA BLA BLA BLA BLA BLA 
BLA BLA BLA BLA BLA BLA BLA BLA BLA BLA BLA BLA BLA BLA BLA BLA BLA BLA BLA BLA 
BLA BLA BLA BLA BLA BLA BLA BLA BLA BLA BLA BLA BLA BLA BLA BLA BLA BLA BLA BLA 
BLA BLA BLA BLA BLA BLA BLA BLA BLA BLA BLA BLA BLA BLA BLA BLA BLA BLA BLA BLA 
BLA BLA BLA BLA BLA BLA BLA BLA BLA BLA BLA BLA BLA BLA BLA BLA BLA BLA BLA BLA 
BLA BLA BLA BLA BLA BLA BLA BLA BLA BLA BLA BLA BLA BLA BLA BLA BLA BLA BLA BLA 
BLA BLA BLA BLA BLA BLA BLA BLA BLA BLA BLA BLA BLA BLA BLA BLA BLA BLA BLA BLA 
BLA BLA BLA BLA BLA BLA BLA BLA BLA BLA BLA BLA BLA BLA BLA BLA BLA BLA BLA BLA 
BLA BLA BLA BLA BLA BLA BLA BLA BLA BLA BLA BLA BLA BLA BLA BLA BLA BLA BLA BLA 
BLA BLA BLA BLA BLA BLA BLA BLA BLA BLA BLA BLA BLA BLA BLA BLA BLA BLA BLA BLA 
BLA BLA BLA BLA BLA BLA BLA BLA BLA BLA BLA BLA BLA BLA BLA BLA BLA BLA BLA BLA 
BLA BLA BLA BLA BLA BLA BLA BLA BLA BLA BLA BLA BLA BLA BLA BLA BLA BLA BLA BLA 
BLA BLA BLA BLA BLA BLA BLA BLA BLA BLA BLA BLA BLA BLA BLA BLA BLA BLA BLA BLA 
BLA BLA BLA BLA BLA BLA BLA BLA BLA BLA BLA BLA BLA BLA BLA BLA BLA BLA BLA BLA 
BLA BLA BLA BLA BLA BLA BLA BLA BLA BLA BLA BLA BLA BLA BLA BLA BLA BLA BLA BLA 
BLA BLA BLA BLA BLA BLA BLA BLA BLA BLA BLA BLA BLA BLA BLA BLA BLA BLA BLA BLA 
BLA BLA BLA BLA BLA BLA BLA BLA BLA BLA BLA BLA BLA BLA BLA BLA BLA BLA BLA BLA 
BLA BLA BLA BLA BLA BLA BLA BLA BLA BLA BLA BLA BLA BLA BLA BLA BLA BLA BLA BLA 
BLA BLA BLA BLA BLA BLA BLA BLA BLA BLA BLA BLA BLA BLA BLA BLA BLA BLA BLA BLA 
BLA BLA BLA BLA BLA BLA BLA BLA BLA BLA BLA BLA BLA BLA BLA BLA BLA BLA BLA BLA 
BLA BLA BLA BLA BLA BLA BLA BLA BLA BLA BLA BLA BLA BLA BLA BLA BLA BLA BLA BLA 
BLA BLA BLA BLA BLA BLA BLA BLA BLA BLA BLA BLA BLA BLA BLA BLA BLA BLA BLA BLA 
BLA BLA BLA BLA BLA BLA BLA BLA BLA BLA BLA BLA BLA BLA BLA BLA BLA BLA BLA BLA 
BLA BLA BLA BLA BLA BLA BLA BLA BLA BLA BLA BLA BLA BLA BLA BLA BLA BLA BLA BLA 
BLA BLA BLA BLA BLA BLA BLA BLA BLA BLA BLA BLA BLA BLA BLA BLA BLA BLA BLA BLA 
BLA BLA BLA BLA BLA BLA BLA BLA BLA BLA BLA BLA BLA BLA BLA BLA BLA BLA BLA BLA 
BLA BLA BLA BLA BLA BLA BLA BLA BLA BLA BLA BLA BLA BLA BLA BLA BLA BLA BLA BLA 
BLA BLA BLA BLA BLA BLA BLA BLA BLA BLA BLA BLA BLA BLA BLA BLA BLA BLA BLA BLA 
BLA BLA BLA BLA BLA BLA BLA BLA BLA BLA BLA BLA BLA BLA BLA BLA BLA BLA BLA BLA 
BLA BLA BLA BLA BLA BLA BLA BLA BLA BLA BLA BLA BLA BLA BLA BLA BLA BLA BLA BLA 
BLA BLA BLA BLA BLA BLA BLA BLA BLA BLA BLA BLA BLA BLA BLA BLA BLA BLA BLA BLA 
BLA BLA BLA BLA BLA BLA BLA BLA BLA BLA BLA BLA BLA BLA BLA BLA BLA BLA BLA BLA 
BLA BLA BLA BLA BLA BLA BLA BLA BLA BLA BLA BLA BLA BLA BLA BLA BLA BLA BLA BLA 
BLA BLA BLA BLA BLA BLA BLA BLA BLA BLA BLA BLA BLA BLA BLA BLA BLA BLA BLA BLA 
BLA BLA BLA BLA BLA BLA BLA BLA BLA BLA BLA BLA BLA BLA BLA BLA BLA BLA BLA BLA 
BLA BLA BLA BLA BLA BLA BLA BLA BLA BLA BLA BLA BLA BLA BLA BLA BLA BLA BLA BLA 
BLA BLA BLA BLA BLA BLA BLA BLA BLA BLA BLA BLA BLA BLA BLA BLA BLA BLA BLA BLA 
BLA BLA BLA BLA BLA BLA BLA BLA BLA BLA BLA BLA BLA BLA BLA BLA BLA BLA BLA BLA 
BLA BLA BLA BLA BLA BLA BLA BLA BLA BLA BLA BLA BLA BLA BLA BLA BLA BLA BLA BLA 
BLA BLA BLA BLA BLA BLA BLA BLA BLA BLA BLA BLA BLA BLA BLA BLA BLA BLA BLA BLA 
BLA BLA BLA BLA BLA BLA BLA BLA BLA BLA BLA BLA BLA BLA BLA BLA BLA BLA BLA BLA 
BLA BLA BLA BLA BLA BLA BLA BLA BLA BLA BLA BLA BLA BLA BLA BLA BLA BLA BLA BLA 
BLA BLA BLA BLA BLA BLA BLA BLA BLA BLA BLA BLA BLA BLA BLA BLA BLA BLA BLA BLA 
BLA BLA BLA BLA BLA BLA BLA BLA BLA BLA BLA BLA BLA BLA BLA BLA BLA BLA BLA BLA 
BLA BLA BLA BLA BLA BLA BLA BLA BLA BLA BLA BLA BLA BLA BLA BLA BLA BLA BLA BLA 
BLA BLA BLA BLA BLA BLA BLA BLA BLA BLA BLA BLA BLA BLA BLA BLA BLA BLA BLA BLA 
BLA BLA BLA BLA BLA BLA BLA BLA BLA BLA BLA BLA BLA BLA BLA BLA BLA BLA BLA BLA 
BLA BLA BLA BLA BLA BLA BLA BLA BLA BLA BLA BLA BLA BLA BLA BLA BLA BLA BLA BLA 
BLA BLA BLA BLA BLA BLA BLA BLA BLA BLA BLA BLA BLA BLA BLA BLA BLA BLA BLA BLA 
BLA BLA BLA BLA BLA BLA BLA BLA BLA BLA BLA BLA BLA BLA BLA BLA BLA BLA BLA BLA 
BLA BLA BLA BLA BLA BLA BLA BLA BLA BLA BLA BLA BLA BLA BLA BLA BLA BLA BLA BLA 
BLA BLA BLA BLA BLA BLA BLA BLA BLA BLA BLA BLA BLA BLA BLA BLA BLA BLA BLA BLA 
BLA BLA BLA BLA BLA BLA BLA BLA BLA BLA BLA BLA BLA BLA BLA BLA BLA BLA BLA BLA 
BLA BLA BLA BLA BLA BLA BLA BLA BLA BLA BLA BLA BLA BLA BLA BLA BLA BLA BLA BLA 
BLA BLA BLA BLA BLA BLA BLA BLA BLA BLA BLA BLA BLA BLA BLA BLA BLA BLA BLA BLA 
BLA BLA BLA BLA BLA BLA BLA BLA BLA BLA BLA BLA BLA BLA BLA BLA BLA BLA BLA BLA 
BLA BLA BLA BLA BLA BLA BLA BLA BLA BLA BLA BLA BLA BLA BLA BLA BLA BLA BLA BLA 
BLA BLA BLA BLA BLA BLA BLA BLA BLA BLA BLA BLA BLA BLA BLA BLA BLA BLA BLA BLA 
BLA BLA BLA BLA BLA BLA BLA BLA BLA BLA BLA BLA BLA BLA BLA BLA BLA BLA BLA BLA 
BLA BLA BLA BLA BLA BLA BLA BLA BLA BLA BLA BLA BLA BLA BLA BLA BLA BLA BLA BLA 
BLA BLA BLA BLA BLA BLA BLA BLA BLA BLA BLA BLA BLA BLA BLA BLA BLA BLA BLA BLA 
BLA BLA BLA BLA BLA BLA BLA BLA BLA BLA BLA BLA BLA BLA BLA BLA BLA BLA BLA BLA 
BLA BLA BLA BLA BLA BLA BLA BLA BLA BLA BLA BLA BLA BLA BLA BLA BLA BLA BLA BLA 
BLA BLA BLA BLA BLA BLA BLA BLA BLA BLA BLA BLA BLA BLA BLA BLA BLA BLA BLA BLA 
BLA BLA BLA BLA BLA BLA BLA BLA BLA BLA BLA BLA BLA BLA BLA BLA BLA BLA BLA BLA 
BLA BLA BLA BLA BLA BLA BLA BLA BLA BLA BLA BLA BLA BLA BLA BLA BLA BLA BLA BLA 
BLA BLA BLA BLA BLA BLA BLA BLA BLA BLA BLA BLA BLA BLA BLA BLA BLA BLA BLA BLA 
BLA BLA BLA BLA BLA BLA BLA BLA BLA BLA BLA BLA BLA BLA BLA BLA BLA BLA BLA BLA 
BLA BLA BLA BLA BLA BLA BLA BLA BLA BLA BLA BLA BLA BLA BLA BLA BLA BLA BLA BLA 
BLA BLA BLA BLA BLA BLA BLA BLA BLA BLA BLA BLA BLA BLA BLA BLA BLA BLA BLA BLA 
BLA BLA BLA BLA BLA BLA BLA BLA BLA BLA BLA BLA BLA BLA BLA BLA BLA BLA BLA BLA 
BLA BLA BLA BLA BLA BLA BLA BLA BLA BLA BLA BLA BLA BLA BLA BLA BLA BLA BLA BLA 
BLA BLA BLA BLA BLA BLA BLA BLA BLA BLA BLA BLA BLA BLA BLA BLA BLA BLA BLA BLA 
BLA BLA BLA BLA BLA BLA BLA BLA BLA BLA BLA BLA BLA BLA BLA BLA BLA BLA BLA BLA 
BLA BLA BLA BLA BLA BLA BLA BLA BLA BLA BLA BLA BLA BLA BLA BLA BLA BLA BLA BLA 
BLA BLA BLA BLA BLA BLA BLA BLA BLA BLA BLA BLA BLA BLA BLA BLA BLA BLA BLA BLA 
BLA BLA BLA BLA BLA BLA BLA BLA BLA BLA BLA BLA BLA BLA BLA BLA BLA BLA BLA BLA 
BLA BLA BLA BLA BLA BLA BLA BLA BLA BLA BLA BLA BLA BLA BLA BLA BLA BLA BLA BLA 
BLA BLA BLA BLA BLA BLA BLA BLA BLA BLA BLA BLA BLA BLA BLA BLA BLA BLA BLA BLA 
BLA BLA BLA BLA BLA BLA BLA BLA BLA BLA BLA BLA BLA BLA BLA BLA BLA BLA BLA BLA 
BLA BLA BLA BLA BLA BLA BLA BLA BLA BLA BLA BLA BLA BLA BLA BLA BLA BLA BLA BLA 
BLA BLA BLA BLA BLA BLA BLA BLA BLA BLA BLA BLA BLA BLA BLA BLA BLA BLA BLA BLA 
BLA BLA BLA BLA BLA BLA BLA BLA BLA BLA BLA BLA BLA BLA BLA BLA BLA BLA BLA BLA 
BLA BLA BLA BLA BLA BLA BLA BLA BLA BLA BLA BLA BLA BLA BLA BLA BLA BLA BLA BLA 
BLA BLA BLA BLA BLA BLA BLA BLA BLA BLA BLA BLA BLA BLA BLA BLA BLA BLA BLA BLA 
BLA BLA BLA BLA BLA BLA BLA BLA BLA BLA BLA BLA BLA BLA BLA BLA BLA BLA BLA BLA 
BLA BLA BLA BLA BLA BLA BLA BLA BLA BLA BLA BLA BLA BLA BLA BLA BLA BLA BLA BLA 
BLA BLA BLA BLA BLA BLA BLA BLA BLA BLA BLA BLA BLA BLA BLA BLA BLA BLA BLA BLA 
BLA BLA BLA BLA BLA BLA BLA BLA BLA BLA BLA BLA BLA BLA BLA BLA BLA BLA BLA BLA 
BLA BLA BLA BLA BLA BLA BLA BLA BLA BLA BLA BLA BLA BLA BLA BLA BLA BLA BLA BLA 
BLA BLA BLA BLA BLA BLA BLA BLA BLA BLA BLA BLA BLA BLA BLA BLA BLA BLA BLA BLA 
BLA BLA BLA BLA BLA BLA BLA BLA BLA BLA BLA BLA BLA BLA BLA BLA BLA BLA BLA BLA 
BLA BLA BLA BLA BLA BLA BLA BLA BLA BLA BLA BLA BLA BLA BLA BLA BLA BLA BLA BLA 
BLA BLA BLA BLA BLA BLA BLA BLA BLA BLA BLA BLA BLA BLA BLA BLA BLA BLA BLA BLA 
BLA BLA BLA BLA BLA BLA BLA BLA BLA BLA BLA BLA BLA BLA BLA BLA BLA BLA BLA BLA 
BLA BLA BLA BLA BLA BLA BLA BLA BLA BLA BLA BLA BLA BLA BLA BLA BLA BLA BLA BLA 
BLA BLA BLA BLA BLA BLA BLA BLA BLA BLA BLA BLA BLA BLA BLA BLA BLA BLA BLA BLA 
BLA BLA BLA BLA BLA BLA BLA BLA BLA BLA BLA BLA BLA BLA BLA BLA BLA BLA BLA BLA 
BLA BLA BLA BLA BLA BLA BLA BLA BLA BLA BLA BLA BLA BLA BLA BLA BLA BLA BLA BLA 
BLA BLA BLA BLA BLA BLA BLA BLA BLA BLA BLA BLA BLA BLA BLA BLA BLA BLA BLA BLA 
BLA BLA BLA BLA BLA BLA BLA BLA BLA BLA BLA BLA BLA BLA BLA BLA BLA BLA BLA BLA 
BLA BLA BLA BLA BLA BLA BLA BLA BLA BLA BLA BLA BLA BLA BLA BLA BLA BLA BLA BLA 
BLA BLA BLA BLA BLA BLA BLA BLA BLA BLA BLA BLA BLA BLA BLA BLA BLA BLA BLA BLA 
BLA BLA BLA BLA BLA BLA BLA BLA BLA BLA BLA BLA BLA BLA BLA BLA BLA BLA BLA BLA 
BLA BLA BLA BLA BLA BLA BLA BLA BLA BLA BLA BLA BLA BLA BLA BLA BLA BLA BLA BLA 
BLA BLA BLA BLA BLA BLA BLA BLA BLA BLA BLA BLA BLA BLA BLA BLA BLA BLA BLA BLA 
BLA BLA BLA BLA BLA BLA BLA BLA BLA BLA BLA BLA BLA BLA BLA BLA BLA BLA BLA BLA 
BLA BLA BLA BLA BLA BLA BLA BLA BLA BLA BLA BLA BLA BLA BLA BLA BLA BLA BLA BLA 
BLA BLA BLA BLA BLA BLA BLA BLA BLA BLA BLA BLA BLA BLA BLA BLA BLA BLA BLA BLA 
BLA BLA BLA BLA BLA BLA BLA BLA BLA BLA BLA BLA BLA BLA BLA BLA BLA BLA BLA BLA 
BLA BLA BLA BLA BLA BLA BLA BLA BLA BLA BLA BLA BLA BLA BLA BLA BLA BLA BLA BLA 
BLA BLA BLA BLA BLA BLA BLA BLA BLA BLA BLA BLA BLA BLA BLA BLA BLA BLA BLA BLA 
BLA BLA BLA BLA BLA BLA BLA BLA BLA BLA BLA BLA BLA BLA BLA BLA BLA BLA BLA BLA 
BLA BLA BLA BLA BLA BLA BLA BLA BLA BLA BLA BLA BLA BLA BLA BLA BLA BLA BLA BLA 
BLA BLA BLA BLA BLA BLA BLA BLA BLA BLA BLA BLA BLA BLA BLA BLA BLA BLA BLA BLA 
BLA BLA BLA BLA BLA BLA BLA BLA BLA BLA BLA BLA BLA BLA BLA BLA BLA BLA BLA BLA 
BLA BLA BLA BLA BLA BLA BLA BLA BLA BLA BLA BLA BLA BLA BLA BLA BLA BLA BLA BLA 
BLA BLA BLA BLA BLA BLA BLA BLA BLA BLA BLA BLA BLA BLA BLA BLA BLA BLA BLA BLA 
BLA BLA BLA BLA BLA BLA BLA BLA BLA BLA BLA BLA BLA BLA BLA BLA BLA BLA BLA BLA 
BLA BLA BLA BLA BLA BLA BLA BLA BLA BLA BLA BLA BLA BLA BLA BLA BLA BLA BLA BLA 
BLA BLA BLA BLA BLA BLA BLA BLA BLA BLA BLA BLA BLA BLA BLA BLA BLA BLA BLA BLA 
BLA BLA BLA BLA BLA BLA BLA BLA BLA BLA BLA BLA BLA BLA BLA BLA BLA BLA BLA BLA 
BLA BLA BLA BLA BLA BLA BLA BLA BLA BLA BLA BLA BLA BLA BLA BLA BLA BLA BLA BLA 
BLA BLA BLA BLA BLA BLA BLA BLA BLA BLA BLA BLA BLA BLA BLA BLA BLA BLA BLA BLA 
BLA BLA BLA BLA BLA BLA BLA BLA BLA BLA BLA BLA BLA BLA BLA BLA BLA BLA BLA BLA 
BLA BLA BLA BLA BLA BLA BLA BLA BLA BLA BLA BLA BLA BLA BLA BLA BLA BLA BLA BLA 
BLA BLA BLA BLA BLA BLA BLA BLA BLA BLA BLA BLA BLA BLA BLA BLA BLA BLA BLA BLA 
BLA BLA BLA BLA BLA BLA BLA BLA BLA BLA BLA BLA BLA BLA BLA BLA BLA BLA BLA BLA 
BLA BLA BLA BLA BLA BLA BLA BLA BLA BLA BLA BLA BLA BLA BLA BLA BLA BLA BLA BLA 
BLA BLA BLA BLA BLA BLA BLA BLA BLA BLA BLA BLA BLA BLA BLA BLA BLA BLA BLA BLA 
BLA BLA BLA BLA BLA BLA BLA BLA BLA BLA BLA BLA BLA BLA BLA BLA BLA BLA BLA BLA 
BLA BLA BLA BLA BLA BLA BLA BLA BLA BLA BLA BLA BLA BLA BLA BLA BLA BLA BLA BLA 
BLA BLA BLA BLA BLA BLA BLA BLA BLA BLA BLA BLA BLA BLA BLA BLA BLA BLA BLA BLA 
BLA BLA BLA BLA BLA BLA BLA BLA BLA BLA BLA BLA BLA BLA BLA BLA BLA BLA BLA BLA 
BLA BLA BLA BLA BLA BLA BLA BLA BLA BLA BLA BLA BLA BLA BLA BLA BLA BLA BLA BLA 
BLA BLA BLA BLA BLA BLA BLA BLA BLA BLA BLA BLA BLA BLA BLA BLA BLA BLA BLA BLA 
BLA BLA BLA BLA BLA BLA BLA BLA BLA BLA BLA BLA BLA BLA BLA BLA BLA BLA BLA BLA 
BLA BLA BLA BLA BLA BLA BLA BLA BLA BLA BLA BLA BLA BLA BLA BLA BLA BLA BLA BLA 
BLA BLA BLA BLA BLA BLA BLA BLA BLA BLA BLA BLA BLA BLA BLA BLA BLA BLA BLA BLA 
BLA BLA BLA BLA BLA BLA BLA BLA BLA BLA BLA BLA BLA BLA BLA BLA BLA BLA BLA BLA 
BLA BLA BLA BLA BLA BLA BLA BLA BLA BLA BLA BLA BLA BLA BLA BLA BLA BLA BLA BLA 
BLA BLA BLA BLA BLA BLA BLA BLA BLA BLA BLA BLA BLA BLA BLA BLA BLA BLA BLA BLA 
BLA BLA BLA BLA BLA BLA BLA BLA BLA BLA BLA BLA BLA BLA BLA BLA BLA BLA BLA BLA 
BLA BLA BLA BLA BLA BLA BLA BLA BLA BLA BLA BLA BLA BLA BLA BLA BLA BLA BLA BLA 
BLA BLA BLA BLA BLA BLA BLA BLA BLA BLA BLA BLA BLA BLA BLA BLA BLA BLA BLA BLA 
BLA BLA BLA BLA BLA BLA BLA BLA BLA BLA BLA BLA BLA BLA BLA BLA BLA BLA BLA BLA 
BLA BLA BLA BLA BLA BLA BLA BLA BLA BLA BLA BLA BLA BLA BLA BLA BLA BLA BLA BLA 
BLA BLA BLA BLA BLA BLA BLA BLA BLA BLA BLA BLA BLA BLA BLA BLA BLA BLA BLA BLA 
BLA BLA BLA BLA BLA BLA BLA BLA BLA BLA BLA BLA BLA BLA BLA BLA BLA BLA BLA BLA 
BLA BLA BLA BLA BLA BLA BLA BLA BLA BLA BLA BLA BLA BLA BLA BLA BLA BLA BLA BLA 
BLA BLA BLA BLA BLA BLA BLA BLA BLA BLA BLA BLA BLA BLA BLA BLA BLA BLA BLA BLA 
BLA BLA BLA BLA BLA BLA BLA BLA BLA BLA BLA BLA BLA BLA BLA BLA BLA BLA BLA BLA 
BLA BLA BLA BLA BLA BLA BLA BLA BLA BLA BLA BLA BLA BLA BLA BLA BLA BLA BLA BLA 
BLA BLA BLA BLA BLA BLA BLA BLA BLA BLA BLA BLA BLA BLA BLA BLA BLA BLA BLA BLA 
BLA BLA BLA BLA BLA BLA BLA BLA BLA BLA BLA BLA BLA BLA BLA BLA BLA BLA BLA BLA 
BLA BLA BLA BLA BLA BLA BLA BLA BLA BLA BLA BLA BLA BLA BLA BLA BLA BLA BLA BLA 
BLA BLA BLA BLA BLA BLA BLA BLA BLA BLA BLA BLA BLA BLA BLA BLA BLA BLA BLA BLA 
BLA BLA BLA BLA BLA BLA BLA BLA BLA BLA BLA BLA BLA BLA BLA BLA BLA BLA BLA BLA 
BLA BLA BLA BLA BLA BLA BLA BLA BLA BLA BLA BLA BLA BLA BLA BLA BLA BLA BLA BLA 
BLA BLA BLA BLA BLA BLA BLA BLA BLA BLA BLA BLA BLA BLA BLA BLA BLA BLA BLA BLA 
BLA BLA BLA BLA BLA BLA BLA BLA BLA BLA BLA BLA BLA BLA BLA BLA BLA BLA BLA BLA 
BLA BLA BLA BLA BLA BLA BLA BLA BLA BLA BLA BLA BLA BLA BLA BLA BLA BLA BLA BLA 
BLA BLA BLA BLA BLA BLA BLA BLA BLA BLA BLA BLA BLA BLA BLA BLA BLA BLA BLA BLA 
BLA BLA BLA BLA BLA BLA BLA BLA BLA BLA BLA BLA BLA BLA BLA BLA BLA BLA BLA BLA 
BLA BLA BLA BLA BLA BLA BLA BLA BLA BLA BLA BLA BLA BLA BLA BLA BLA BLA BLA BLA 
BLA BLA BLA BLA BLA BLA BLA BLA BLA BLA BLA BLA BLA BLA BLA BLA BLA BLA BLA BLA 
BLA BLA BLA BLA BLA BLA BLA BLA BLA BLA BLA BLA BLA BLA BLA BLA BLA BLA BLA BLA 
BLA BLA BLA BLA BLA BLA BLA BLA BLA BLA BLA BLA BLA BLA BLA BLA BLA BLA BLA BLA 
BLA BLA BLA BLA BLA BLA BLA BLA BLA BLA BLA BLA BLA BLA BLA BLA BLA BLA BLA BLA 
BLA BLA BLA BLA BLA BLA BLA BLA BLA BLA BLA BLA BLA BLA BLA BLA BLA BLA BLA BLA 
BLA BLA BLA BLA BLA BLA BLA BLA BLA BLA BLA BLA BLA BLA BLA BLA BLA BLA BLA BLA 
BLA BLA BLA BLA BLA BLA BLA BLA BLA BLA BLA BLA BLA BLA BLA BLA BLA BLA BLA BLA 
BLA BLA BLA BLA BLA BLA BLA BLA BLA BLA BLA BLA BLA BLA BLA BLA BLA BLA BLA BLA 
BLA BLA BLA BLA BLA BLA BLA BLA BLA BLA BLA BLA BLA BLA BLA BLA BLA BLA BLA BLA 
BLA BLA BLA BLA BLA BLA BLA BLA BLA BLA BLA BLA BLA BLA BLA BLA BLA BLA BLA BLA 
BLA BLA BLA BLA BLA BLA BLA BLA BLA BLA BLA BLA BLA BLA BLA BLA BLA BLA BLA BLA 
BLA BLA BLA BLA BLA BLA BLA BLA BLA BLA BLA BLA BLA BLA BLA BLA BLA BLA BLA BLA 
BLA BLA BLA BLA BLA BLA BLA BLA BLA BLA BLA BLA BLA BLA BLA BLA BLA BLA BLA BLA 
BLA BLA BLA BLA BLA BLA BLA BLA BLA BLA BLA BLA BLA BLA BLA BLA BLA BLA BLA BLA 
BLA BLA BLA BLA BLA BLA BLA BLA BLA BLA BLA BLA BLA BLA BLA BLA BLA BLA BLA BLA 
BLA BLA BLA BLA BLA BLA BLA BLA BLA BLA BLA BLA BLA BLA BLA BLA BLA BLA BLA BLA 
BLA BLA BLA BLA BLA BLA BLA BLA BLA BLA BLA BLA BLA BLA BLA BLA BLA BLA BLA BLA 
BLA BLA BLA BLA BLA BLA BLA BLA BLA BLA BLA BLA BLA BLA BLA BLA BLA BLA BLA BLA 
BLA BLA BLA BLA BLA BLA BLA BLA BLA BLA BLA BLA BLA BLA BLA BLA BLA BLA BLA BLA 
BLA BLA BLA BLA BLA BLA BLA BLA BLA BLA BLA BLA BLA BLA BLA BLA BLA BLA BLA BLA 
BLA BLA BLA BLA BLA BLA BLA BLA BLA BLA BLA BLA BLA BLA BLA BLA BLA BLA BLA BLA 
BLA BLA BLA BLA BLA BLA BLA BLA BLA BLA BLA BLA BLA BLA BLA BLA BLA BLA BLA BLA 
BLA BLA BLA BLA BLA BLA BLA BLA BLA BLA BLA BLA BLA BLA BLA BLA BLA BLA BLA BLA 
BLA BLA BLA BLA BLA BLA BLA BLA BLA BLA BLA BLA BLA BLA BLA BLA BLA BLA BLA BLA 
BLA BLA BLA BLA BLA BLA BLA BLA BLA BLA BLA BLA BLA BLA BLA BLA BLA BLA BLA BLA 
BLA BLA BLA BLA BLA BLA BLA BLA BLA BLA BLA BLA BLA BLA BLA BLA BLA BLA BLA BLA 
BLA BLA BLA BLA BLA BLA BLA BLA BLA BLA BLA BLA BLA BLA BLA BLA BLA BLA BLA BLA 
BLA BLA BLA BLA BLA BLA BLA BLA BLA BLA BLA BLA BLA BLA BLA BLA BLA BLA BLA BLA 
BLA BLA BLA BLA BLA BLA BLA BLA BLA BLA BLA BLA BLA BLA BLA BLA BLA BLA BLA BLA 
BLA BLA BLA BLA BLA BLA BLA BLA BLA BLA BLA BLA BLA BLA BLA BLA BLA BLA BLA BLA 
BLA BLA BLA BLA BLA BLA BLA BLA BLA BLA BLA BLA BLA BLA BLA BLA BLA BLA BLA BLA 
BLA BLA BLA BLA BLA BLA BLA BLA BLA BLA BLA BLA BLA BLA BLA BLA BLA BLA BLA BLA 
BLA BLA BLA BLA BLA BLA BLA BLA BLA BLA BLA BLA BLA BLA BLA BLA BLA BLA BLA BLA 
BLA BLA BLA BLA BLA BLA BLA BLA BLA BLA BLA BLA BLA BLA BLA BLA BLA BLA BLA BLA 
BLA BLA BLA BLA BLA BLA BLA BLA BLA BLA BLA BLA BLA BLA BLA BLA BLA BLA BLA BLA 
BLA BLA BLA BLA BLA BLA BLA BLA BLA BLA BLA BLA BLA BLA BLA BLA BLA BLA BLA BLA 
BLA BLA BLA BLA BLA BLA BLA BLA BLA BLA BLA BLA BLA BLA BLA BLA BLA BLA BLA BLA 
BLA BLA BLA BLA BLA BLA BLA BLA BLA BLA BLA BLA BLA BLA BLA BLA BLA BLA BLA BLA 
BLA BLA BLA BLA BLA BLA BLA BLA BLA BLA BLA BLA BLA BLA BLA BLA BLA BLA BLA BLA 
BLA BLA BLA BLA BLA BLA BLA BLA BLA BLA BLA BLA BLA BLA BLA BLA BLA BLA BLA BLA 
BLA BLA BLA BLA BLA BLA BLA BLA BLA BLA BLA BLA BLA BLA BLA BLA BLA BLA BLA BLA 
BLA BLA BLA BLA BLA BLA BLA BLA BLA BLA BLA BLA BLA BLA BLA BLA BLA BLA BLA BLA 
BLA BLA BLA BLA BLA BLA BLA BLA BLA BLA BLA BLA BLA BLA BLA BLA BLA BLA BLA BLA 
BLA BLA BLA BLA BLA BLA BLA BLA BLA BLA BLA BLA BLA BLA BLA BLA BLA BLA BLA BLA 
BLA BLA BLA BLA BLA BLA BLA BLA BLA BLA BLA BLA BLA BLA BLA BLA BLA BLA BLA BLA 
BLA BLA BLA BLA BLA BLA BLA BLA BLA BLA BLA BLA BLA BLA BLA BLA BLA BLA BLA BLA 
BLA BLA BLA BLA BLA BLA BLA BLA BLA BLA BLA BLA BLA BLA BLA BLA BLA BLA BLA BLA 
BLA BLA BLA BLA BLA BLA BLA BLA BLA BLA BLA BLA BLA BLA BLA BLA BLA BLA BLA BLA 
BLA BLA BLA BLA BLA BLA BLA BLA BLA BLA BLA BLA BLA BLA BLA BLA BLA BLA BLA BLA 
BLA BLA BLA BLA BLA BLA BLA BLA BLA BLA BLA BLA BLA BLA BLA BLA BLA BLA BLA BLA 
BLA BLA BLA BLA BLA BLA BLA BLA BLA BLA BLA BLA BLA BLA BLA BLA BLA BLA BLA BLA 
BLA BLA BLA BLA BLA BLA BLA BLA BLA BLA BLA BLA BLA BLA BLA BLA BLA BLA BLA BLA 
BLA BLA BLA BLA BLA BLA BLA BLA BLA BLA BLA BLA BLA BLA BLA BLA BLA BLA BLA BLA 
BLA BLA BLA BLA BLA BLA BLA BLA BLA BLA BLA BLA BLA BLA BLA BLA BLA BLA BLA BLA 
BLA BLA BLA BLA BLA BLA BLA BLA BLA BLA BLA BLA BLA BLA BLA BLA BLA BLA BLA BLA 
BLA BLA BLA BLA BLA BLA BLA BLA BLA BLA BLA BLA BLA BLA BLA BLA BLA BLA BLA BLA 
BLA BLA BLA BLA BLA BLA BLA BLA BLA BLA BLA BLA BLA BLA BLA BLA BLA BLA BLA BLA 
BLA BLA BLA BLA BLA BLA BLA BLA BLA BLA BLA BLA BLA BLA BLA BLA BLA BLA BLA BLA 
BLA BLA BLA BLA BLA BLA BLA BLA BLA BLA BLA BLA BLA BLA BLA BLA BLA BLA BLA BLA 
BLA BLA BLA BLA BLA BLA BLA BLA BLA BLA BLA BLA BLA BLA BLA BLA BLA BLA BLA BLA 
BLA BLA BLA BLA BLA BLA BLA BLA BLA BLA BLA BLA BLA BLA BLA BLA BLA BLA BLA BLA 
BLA BLA BLA BLA BLA BLA BLA BLA BLA BLA BLA BLA BLA BLA BLA BLA BLA BLA BLA BLA 
BLA BLA BLA BLA BLA BLA BLA BLA BLA BLA BLA BLA BLA BLA BLA BLA BLA BLA BLA BLA 
BLA BLA BLA BLA BLA BLA BLA BLA BLA BLA BLA BLA BLA BLA BLA BLA BLA BLA BLA BLA 
BLA BLA BLA BLA BLA BLA BLA BLA BLA BLA BLA BLA BLA BLA BLA BLA BLA BLA BLA BLA 
BLA BLA BLA BLA BLA BLA BLA BLA BLA BLA BLA BLA BLA BLA BLA BLA BLA BLA BLA BLA 
BLA BLA BLA BLA BLA BLA BLA BLA BLA BLA BLA BLA BLA BLA BLA BLA BLA BLA BLA BLA 
BLA BLA BLA BLA BLA BLA BLA BLA BLA BLA BLA BLA BLA BLA BLA BLA BLA BLA BLA BLA 
BLA BLA BLA BLA BLA BLA BLA BLA BLA BLA BLA BLA BLA BLA BLA BLA BLA BLA BLA BLA 
BLA BLA BLA BLA BLA BLA BLA BLA BLA BLA BLA BLA BLA BLA BLA BLA BLA BLA BLA BLA 
BLA BLA BLA BLA BLA BLA BLA BLA BLA BLA BLA BLA BLA BLA BLA BLA BLA BLA BLA BLA 
BLA BLA BLA BLA BLA BLA BLA BLA BLA BLA BLA BLA BLA BLA BLA BLA BLA BLA BLA BLA 
BLA BLA BLA BLA BLA BLA BLA BLA BLA BLA BLA BLA BLA BLA BLA BLA BLA BLA BLA BLA 
BLA BLA BLA BLA BLA BLA BLA BLA BLA BLA BLA BLA BLA BLA BLA BLA BLA BLA BLA BLA 
BLA BLA BLA BLA BLA BLA BLA BLA BLA BLA BLA BLA BLA BLA BLA BLA BLA BLA BLA BLA 
BLA BLA BLA BLA BLA BLA BLA BLA BLA BLA BLA BLA BLA BLA BLA BLA BLA BLA BLA BLA 
BLA BLA BLA BLA BLA BLA BLA BLA BLA BLA BLA BLA BLA BLA BLA BLA BLA BLA BLA BLA 
BLA BLA BLA BLA BLA BLA BLA BLA BLA BLA BLA BLA BLA BLA BLA BLA BLA BLA BLA BLA 
BLA BLA BLA BLA BLA BLA BLA BLA BLA BLA BLA BLA BLA BLA BLA BLA BLA BLA BLA BLA 
BLA BLA BLA BLA BLA BLA BLA BLA BLA BLA BLA BLA BLA BLA BLA BLA BLA BLA BLA BLA 
BLA BLA BLA BLA BLA BLA BLA BLA BLA BLA BLA BLA BLA BLA BLA BLA BLA BLA BLA BLA 
BLA BLA BLA BLA BLA BLA BLA BLA BLA BLA BLA BLA BLA BLA BLA BLA BLA BLA BLA BLA 
BLA BLA BLA BLA BLA BLA BLA BLA BLA BLA BLA BLA BLA BLA BLA BLA BLA BLA BLA BLA 
BLA BLA BLA BLA BLA BLA BLA BLA BLA BLA BLA BLA BLA BLA BLA BLA BLA BLA BLA BLA 
BLA BLA BLA BLA BLA BLA BLA BLA BLA BLA BLA BLA BLA BLA BLA BLA BLA BLA BLA BLA 
BLA BLA BLA BLA BLA BLA BLA BLA BLA BLA BLA BLA BLA BLA BLA BLA BLA BLA BLA BLA 
BLA BLA BLA BLA BLA BLA BLA BLA BLA BLA BLA BLA BLA BLA BLA BLA BLA BLA BLA BLA 
BLA BLA BLA BLA BLA BLA BLA BLA BLA BLA BLA BLA BLA BLA BLA BLA BLA BLA BLA BLA 
BLA BLA BLA BLA BLA BLA BLA BLA BLA BLA BLA BLA BLA BLA BLA BLA BLA BLA BLA BLA 
BLA BLA BLA BLA BLA BLA BLA BLA BLA BLA BLA BLA BLA BLA BLA BLA BLA BLA BLA BLA 
BLA BLA BLA BLA BLA BLA BLA BLA BLA BLA BLA BLA BLA BLA BLA BLA BLA BLA BLA BLA 
BLA BLA BLA BLA BLA BLA BLA BLA BLA BLA BLA BLA BLA BLA BLA BLA BLA BLA BLA BLA 
BLA BLA BLA BLA BLA BLA BLA BLA BLA BLA BLA BLA BLA BLA BLA BLA BLA BLA BLA BLA 
BLA BLA BLA BLA BLA BLA BLA BLA BLA BLA BLA BLA BLA BLA BLA BLA BLA BLA BLA BLA 
BLA BLA BLA BLA BLA BLA BLA BLA BLA BLA BLA BLA BLA BLA BLA BLA BLA BLA BLA BLA 
BLA BLA BLA BLA BLA BLA BLA BLA BLA BLA BLA BLA BLA BLA BLA BLA BLA BLA BLA BLA 
BLA BLA BLA BLA BLA BLA BLA BLA BLA BLA BLA BLA BLA BLA BLA BLA BLA BLA BLA BLA 
BLA BLA BLA BLA BLA BLA BLA BLA BLA BLA BLA BLA BLA BLA BLA BLA BLA BLA BLA BLA 
BLA BLA BLA BLA BLA BLA BLA BLA BLA BLA BLA BLA BLA BLA BLA BLA BLA BLA BLA BLA 
BLA BLA BLA BLA BLA BLA BLA BLA BLA BLA BLA BLA BLA BLA BLA BLA BLA BLA BLA BLA 
BLA BLA BLA BLA BLA BLA BLA BLA BLA BLA BLA BLA BLA BLA BLA BLA BLA BLA BLA BLA 
BLA BLA BLA BLA BLA BLA BLA BLA BLA BLA BLA BLA BLA BLA BLA BLA BLA BLA BLA BLA 
BLA BLA BLA BLA BLA BLA BLA BLA BLA BLA BLA BLA BLA BLA BLA BLA BLA BLA BLA BLA 
BLA BLA BLA BLA BLA BLA BLA BLA BLA BLA BLA BLA BLA BLA BLA BLA BLA BLA BLA BLA 
BLA BLA BLA BLA BLA BLA BLA BLA BLA BLA BLA BLA BLA BLA BLA BLA BLA BLA BLA BLA 
BLA BLA BLA BLA BLA BLA BLA BLA BLA BLA BLA BLA BLA BLA BLA BLA BLA BLA BLA BLA 
BLA BLA BLA BLA BLA BLA BLA BLA BLA BLA BLA BLA BLA BLA BLA BLA BLA BLA BLA BLA 
BLA BLA BLA BLA BLA BLA BLA BLA BLA BLA BLA BLA BLA BLA BLA BLA BLA BLA BLA BLA 
BLA BLA BLA BLA BLA BLA BLA BLA BLA BLA BLA BLA BLA BLA BLA BLA BLA BLA BLA BLA 
BLA BLA BLA BLA BLA BLA BLA BLA BLA BLA BLA BLA BLA BLA BLA BLA BLA BLA BLA BLA 
BLA BLA BLA BLA BLA BLA BLA BLA BLA BLA BLA BLA BLA BLA BLA BLA BLA BLA BLA BLA 
BLA BLA BLA BLA BLA BLA BLA BLA BLA BLA BLA BLA BLA BLA BLA BLA BLA BLA BLA BLA 
BLA BLA BLA BLA BLA BLA BLA BLA BLA BLA BLA BLA BLA BLA BLA BLA BLA BLA BLA BLA 
BLA BLA BLA BLA BLA BLA BLA BLA BLA BLA BLA BLA BLA BLA BLA BLA BLA BLA BLA BLA 
BLA BLA BLA BLA BLA BLA BLA BLA BLA BLA BLA BLA BLA BLA BLA BLA BLA BLA BLA BLA 
BLA BLA BLA BLA BLA BLA BLA BLA BLA BLA BLA BLA BLA BLA BLA BLA BLA BLA BLA BLA 
BLA BLA BLA BLA BLA BLA BLA BLA BLA BLA BLA BLA BLA BLA BLA BLA BLA BLA BLA BLA 
BLA BLA BLA BLA BLA BLA BLA BLA BLA BLA BLA BLA BLA BLA BLA BLA BLA BLA BLA BLA 
BLA BLA BLA BLA BLA BLA BLA BLA BLA BLA BLA BLA BLA BLA BLA BLA BLA BLA BLA BLA 
BLA BLA BLA BLA BLA BLA BLA BLA BLA BLA BLA BLA BLA BLA BLA BLA BLA BLA BLA BLA 
BLA BLA BLA BLA BLA BLA BLA BLA BLA BLA BLA BLA BLA BLA BLA BLA BLA BLA BLA BLA 
BLA BLA BLA BLA BLA BLA BLA BLA BLA BLA BLA BLA BLA BLA BLA BLA BLA BLA BLA BLA 
BLA BLA BLA BLA BLA BLA BLA BLA BLA BLA BLA BLA BLA BLA BLA BLA BLA BLA BLA BLA 
BLA BLA BLA BLA BLA BLA BLA BLA BLA BLA BLA BLA BLA BLA BLA BLA BLA BLA BLA BLA 
BLA BLA BLA BLA BLA BLA BLA BLA BLA BLA BLA BLA BLA BLA BLA BLA BLA BLA BLA BLA 
BLA BLA BLA BLA BLA BLA BLA BLA BLA BLA BLA BLA BLA BLA BLA BLA BLA BLA BLA BLA 
BLA BLA BLA BLA BLA BLA BLA BLA BLA BLA BLA BLA BLA BLA BLA BLA BLA BLA BLA BLA 
BLA BLA BLA BLA BLA BLA BLA BLA BLA BLA BLA BLA BLA BLA BLA BLA BLA BLA BLA BLA 
BLA BLA BLA BLA BLA BLA BLA BLA BLA BLA BLA BLA BLA BLA BLA BLA BLA BLA BLA BLA 
BLA BLA BLA BLA BLA BLA BLA BLA BLA BLA BLA BLA BLA BLA BLA BLA BLA BLA BLA BLA 
BLA BLA BLA BLA BLA BLA BLA BLA BLA BLA BLA BLA BLA BLA BLA BLA BLA BLA BLA BLA 
BLA BLA BLA BLA BLA BLA BLA BLA BLA BLA BLA BLA BLA BLA BLA BLA BLA BLA BLA BLA 
BLA BLA BLA BLA BLA BLA BLA BLA BLA BLA BLA BLA BLA BLA BLA BLA BLA BLA BLA BLA 
BLA BLA BLA BLA BLA BLA BLA BLA BLA BLA BLA BLA BLA BLA BLA BLA BLA BLA BLA BLA 
BLA BLA BLA BLA BLA BLA BLA BLA BLA BLA BLA BLA BLA BLA BLA BLA BLA BLA BLA BLA 
BLA BLA BLA BLA BLA BLA BLA BLA BLA BLA BLA BLA BLA BLA BLA BLA BLA BLA BLA BLA 
BLA BLA BLA BLA BLA BLA BLA BLA BLA BLA BLA BLA BLA BLA BLA BLA BLA BLA BLA BLA 
BLA BLA BLA BLA BLA BLA BLA BLA BLA BLA BLA BLA BLA BLA BLA BLA BLA BLA BLA BLA 
BLA BLA BLA BLA BLA BLA BLA BLA BLA BLA BLA BLA BLA BLA BLA BLA BLA BLA BLA BLA 
BLA BLA BLA BLA BLA BLA BLA BLA BLA BLA BLA BLA BLA BLA BLA BLA BLA BLA BLA BLA 
BLA BLA BLA BLA BLA BLA BLA BLA BLA BLA BLA BLA BLA BLA BLA BLA BLA BLA BLA BLA 
BLA BLA BLA BLA BLA BLA BLA BLA BLA BLA BLA BLA BLA BLA BLA BLA BLA BLA BLA BLA 
BLA BLA BLA BLA BLA BLA BLA BLA BLA BLA BLA BLA BLA BLA BLA BLA BLA BLA BLA BLA 
BLA BLA BLA BLA BLA BLA BLA BLA BLA BLA BLA BLA BLA BLA BLA BLA BLA BLA BLA BLA 
BLA BLA BLA BLA BLA BLA BLA BLA BLA BLA BLA BLA BLA BLA BLA BLA BLA BLA BLA BLA 
BLA BLA BLA BLA BLA BLA BLA BLA BLA BLA BLA BLA BLA BLA BLA BLA BLA BLA BLA BLA 
BLA BLA BLA BLA BLA BLA BLA BLA BLA BLA BLA BLA BLA BLA BLA BLA BLA BLA BLA BLA 
BLA BLA BLA BLA BLA BLA BLA BLA BLA BLA BLA BLA BLA BLA BLA BLA BLA BLA BLA BLA 
BLA BLA BLA BLA BLA BLA BLA BLA BLA BLA BLA BLA BLA BLA BLA BLA BLA BLA BLA BLA 
BLA BLA BLA BLA BLA BLA BLA BLA BLA BLA BLA BLA BLA BLA BLA BLA BLA BLA BLA BLA 
BLA BLA BLA BLA BLA BLA BLA BLA BLA BLA BLA BLA BLA BLA BLA BLA BLA BLA BLA BLA 
BLA BLA BLA BLA BLA BLA BLA BLA BLA BLA BLA BLA BLA BLA BLA BLA BLA BLA BLA BLA 
BLA BLA BLA BLA BLA BLA BLA BLA BLA BLA BLA BLA BLA BLA BLA BLA BLA BLA BLA BLA 
BLA BLA BLA BLA BLA BLA BLA BLA BLA BLA BLA BLA BLA BLA BLA BLA BLA BLA BLA BLA 
BLA BLA BLA BLA BLA BLA BLA BLA BLA BLA BLA BLA BLA BLA BLA BLA BLA BLA BLA BLA 
BLA BLA BLA BLA BLA BLA BLA BLA BLA BLA BLA BLA BLA BLA BLA BLA BLA BLA BLA BLA 
BLA BLA BLA BLA BLA BLA BLA BLA BLA BLA BLA BLA BLA BLA BLA BLA BLA BLA BLA BLA 
BLA BLA BLA BLA BLA BLA BLA BLA BLA BLA BLA BLA BLA BLA BLA BLA BLA BLA BLA BLA 
BLA BLA BLA BLA BLA BLA BLA BLA BLA BLA BLA BLA BLA BLA BLA BLA BLA BLA BLA BLA 
BLA BLA BLA BLA BLA BLA BLA BLA BLA BLA BLA BLA BLA BLA BLA BLA BLA BLA BLA BLA 
BLA BLA BLA BLA BLA BLA BLA BLA BLA BLA BLA BLA BLA BLA BLA BLA BLA BLA BLA BLA 
BLA BLA BLA BLA BLA BLA BLA BLA BLA BLA BLA BLA BLA BLA BLA BLA BLA BLA BLA BLA 
BLA BLA BLA BLA BLA BLA BLA BLA BLA BLA BLA BLA BLA BLA BLA BLA BLA BLA BLA BLA 
BLA BLA BLA BLA BLA BLA BLA BLA BLA BLA BLA BLA BLA BLA BLA BLA BLA BLA BLA BLA 
BLA BLA BLA BLA BLA BLA BLA BLA BLA BLA BLA BLA BLA BLA BLA BLA BLA BLA BLA BLA 
BLA BLA BLA BLA BLA BLA BLA BLA BLA BLA BLA BLA BLA BLA BLA BLA BLA BLA BLA BLA 
BLA BLA BLA BLA BLA BLA BLA BLA BLA BLA BLA BLA BLA BLA BLA BLA BLA BLA BLA BLA 
BLA BLA BLA BLA BLA BLA BLA BLA BLA BLA BLA BLA BLA BLA BLA BLA BLA BLA BLA BLA 
BLA BLA BLA BLA BLA BLA BLA BLA BLA BLA BLA BLA BLA BLA BLA BLA BLA BLA BLA BLA 
BLA BLA BLA BLA BLA BLA BLA BLA BLA BLA BLA BLA BLA BLA BLA BLA BLA BLA BLA BLA 
BLA BLA BLA BLA BLA BLA BLA BLA BLA BLA BLA BLA BLA BLA BLA BLA BLA BLA BLA BLA 
BLA BLA BLA BLA BLA BLA BLA BLA BLA BLA BLA BLA BLA BLA BLA BLA BLA BLA BLA BLA 
BLA BLA BLA BLA BLA BLA BLA BLA BLA BLA BLA BLA BLA BLA BLA BLA BLA BLA BLA BLA 
BLA BLA BLA BLA BLA BLA BLA BLA BLA BLA BLA BLA BLA BLA BLA BLA BLA BLA BLA BLA 
BLA BLA BLA BLA BLA BLA BLA BLA BLA BLA BLA BLA BLA BLA BLA BLA BLA BLA BLA BLA 
BLA BLA BLA BLA BLA BLA BLA BLA BLA BLA BLA BLA BLA BLA BLA BLA BLA BLA BLA BLA 
BLA BLA BLA BLA BLA BLA BLA BLA BLA BLA BLA BLA BLA BLA BLA BLA BLA BLA BLA BLA 
BLA BLA BLA BLA BLA BLA BLA BLA BLA BLA BLA BLA BLA BLA BLA BLA BLA BLA BLA BLA 
BLA BLA BLA BLA BLA BLA BLA BLA BLA BLA BLA BLA BLA BLA BLA BLA BLA BLA BLA BLA 
BLA BLA BLA BLA BLA BLA BLA BLA BLA BLA BLA BLA BLA BLA BLA BLA BLA BLA BLA BLA 
BLA BLA BLA BLA BLA BLA BLA BLA BLA BLA BLA BLA BLA BLA BLA BLA BLA BLA BLA BLA 
BLA BLA BLA BLA BLA BLA BLA BLA BLA BLA BLA BLA BLA BLA BLA BLA BLA BLA BLA BLA 
BLA BLA BLA BLA BLA BLA BLA BLA BLA BLA BLA BLA BLA BLA BLA BLA BLA BLA BLA BLA 
BLA BLA BLA BLA BLA BLA BLA BLA BLA BLA BLA BLA BLA BLA BLA BLA BLA BLA BLA BLA 
BLA BLA BLA BLA BLA BLA BLA BLA BLA BLA BLA BLA BLA BLA BLA BLA BLA BLA BLA BLA 
BLA BLA BLA BLA BLA BLA BLA BLA BLA BLA BLA BLA BLA BLA BLA BLA BLA BLA BLA BLA 
BLA BLA BLA BLA BLA BLA BLA BLA BLA BLA BLA BLA BLA BLA BLA BLA BLA BLA BLA BLA 
BLA BLA BLA BLA BLA BLA BLA BLA BLA BLA BLA BLA BLA BLA BLA BLA BLA BLA BLA BLA 
BLA BLA BLA BLA BLA BLA BLA BLA BLA BLA BLA BLA BLA BLA BLA BLA BLA BLA BLA BLA 
BLA BLA BLA BLA BLA BLA BLA BLA BLA BLA BLA BLA BLA BLA BLA BLA BLA BLA BLA BLA 
BLA BLA BLA BLA BLA BLA BLA BLA BLA BLA BLA BLA BLA BLA BLA BLA BLA BLA BLA BLA 
BLA BLA BLA BLA BLA BLA BLA BLA BLA BLA BLA BLA BLA BLA BLA BLA BLA BLA BLA BLA 
BLA BLA BLA BLA BLA BLA BLA BLA BLA BLA BLA BLA BLA BLA BLA BLA BLA BLA BLA BLA 
BLA BLA BLA BLA BLA BLA BLA BLA BLA BLA BLA BLA BLA BLA BLA BLA BLA BLA BLA BLA 
BLA BLA BLA BLA BLA BLA BLA BLA BLA BLA BLA BLA BLA BLA BLA BLA BLA BLA BLA BLA 
BLA BLA BLA BLA BLA BLA BLA BLA BLA BLA BLA BLA BLA BLA BLA BLA BLA BLA BLA BLA 
BLA BLA BLA BLA BLA BLA BLA BLA BLA BLA BLA BLA BLA BLA BLA BLA BLA BLA BLA BLA 
BLA BLA BLA BLA BLA BLA BLA BLA BLA BLA BLA BLA BLA BLA BLA BLA BLA BLA BLA BLA 
BLA BLA BLA BLA BLA BLA BLA BLA BLA BLA BLA BLA BLA BLA BLA BLA BLA BLA BLA BLA 
BLA BLA BLA BLA BLA BLA BLA BLA BLA BLA BLA BLA BLA BLA BLA BLA BLA BLA BLA BLA 
BLA BLA BLA BLA BLA BLA BLA BLA BLA BLA BLA BLA BLA BLA BLA BLA BLA BLA BLA BLA 
BLA BLA BLA BLA BLA BLA BLA BLA BLA BLA BLA BLA BLA BLA BLA BLA BLA BLA BLA BLA 
BLA BLA BLA BLA BLA BLA BLA BLA BLA BLA BLA BLA BLA BLA BLA BLA BLA BLA BLA BLA 
BLA BLA BLA BLA BLA BLA BLA BLA BLA BLA BLA BLA BLA BLA BLA BLA BLA BLA BLA BLA 
BLA BLA BLA BLA BLA BLA BLA BLA BLA BLA BLA BLA BLA BLA BLA BLA BLA BLA BLA BLA 
BLA BLA BLA BLA BLA BLA BLA BLA BLA BLA BLA BLA BLA BLA BLA BLA BLA BLA BLA BLA 
BLA BLA BLA BLA BLA BLA BLA BLA BLA BLA BLA BLA BLA BLA BLA BLA BLA BLA BLA BLA 
BLA BLA BLA BLA BLA BLA BLA BLA BLA BLA BLA BLA BLA BLA BLA BLA BLA BLA BLA BLA 
BLA BLA BLA BLA BLA BLA BLA BLA BLA BLA BLA BLA BLA BLA BLA BLA BLA BLA BLA BLA 
BLA BLA BLA BLA BLA BLA BLA BLA BLA BLA BLA BLA BLA BLA BLA BLA BLA BLA BLA BLA 
BLA BLA BLA BLA BLA BLA BLA BLA BLA BLA BLA BLA BLA BLA BLA BLA BLA BLA BLA BLA 
BLA BLA BLA BLA BLA BLA BLA BLA BLA BLA BLA BLA BLA BLA BLA BLA BLA BLA BLA BLA 
BLA BLA BLA BLA BLA BLA BLA BLA BLA BLA BLA BLA BLA BLA BLA BLA BLA BLA BLA BLA 
BLA BLA BLA BLA BLA BLA BLA BLA BLA BLA BLA BLA BLA BLA BLA BLA BLA BLA BLA BLA 
BLA BLA BLA BLA BLA BLA BLA BLA BLA BLA BLA BLA BLA BLA BLA BLA BLA BLA BLA BLA 
BLA BLA BLA BLA BLA BLA BLA BLA BLA BLA BLA BLA BLA BLA BLA BLA BLA BLA BLA BLA 
BLA BLA BLA BLA BLA BLA BLA BLA BLA BLA BLA BLA BLA BLA BLA BLA BLA BLA BLA BLA 
BLA BLA BLA BLA BLA BLA BLA BLA BLA BLA BLA BLA BLA BLA BLA BLA BLA BLA BLA BLA 
BLA BLA BLA BLA BLA BLA BLA BLA BLA BLA BLA BLA BLA BLA BLA BLA BLA BLA BLA BLA 
BLA BLA BLA BLA BLA BLA BLA BLA BLA BLA BLA BLA BLA BLA BLA BLA BLA BLA BLA BLA 
BLA BLA BLA BLA BLA BLA BLA BLA BLA BLA BLA BLA BLA BLA BLA BLA BLA BLA BLA BLA 
BLA BLA BLA BLA BLA BLA BLA BLA BLA BLA BLA BLA BLA BLA BLA BLA BLA BLA BLA BLA 
BLA BLA BLA BLA BLA BLA BLA BLA BLA BLA BLA BLA BLA BLA BLA BLA BLA BLA BLA BLA 
BLA BLA BLA BLA BLA BLA BLA BLA BLA BLA BLA BLA BLA BLA BLA BLA BLA BLA BLA BLA 
BLA BLA BLA BLA BLA BLA BLA BLA BLA BLA BLA BLA BLA BLA BLA BLA BLA BLA BLA BLA 
BLA BLA BLA BLA BLA BLA BLA BLA BLA BLA BLA BLA BLA BLA BLA BLA BLA BLA BLA BLA 
BLA BLA BLA BLA BLA BLA BLA BLA BLA BLA BLA BLA BLA BLA BLA BLA BLA BLA BLA BLA 
BLA BLA BLA BLA BLA BLA BLA BLA BLA BLA BLA BLA BLA BLA BLA BLA BLA BLA BLA BLA 
BLA BLA BLA BLA BLA BLA BLA BLA BLA BLA BLA BLA BLA BLA BLA BLA BLA BLA BLA BLA 
BLA BLA BLA BLA BLA BLA BLA BLA BLA BLA BLA BLA BLA BLA BLA BLA BLA BLA BLA BLA 
BLA BLA BLA BLA BLA BLA BLA BLA BLA BLA BLA BLA BLA BLA BLA BLA BLA BLA BLA BLA 
BLA BLA BLA BLA BLA BLA BLA BLA BLA BLA BLA BLA BLA BLA BLA BLA BLA BLA BLA BLA 
BLA BLA BLA BLA BLA BLA BLA BLA BLA BLA BLA BLA BLA BLA BLA BLA BLA BLA BLA BLA 
BLA BLA BLA BLA BLA BLA BLA BLA BLA BLA BLA BLA BLA BLA BLA BLA BLA BLA BLA BLA 
BLA BLA BLA BLA BLA BLA BLA BLA BLA BLA BLA BLA BLA BLA BLA BLA BLA BLA BLA BLA 
BLA BLA BLA BLA BLA BLA BLA BLA BLA BLA BLA BLA BLA BLA BLA BLA BLA BLA BLA BLA 
BLA BLA BLA BLA BLA BLA BLA BLA BLA BLA BLA BLA BLA BLA BLA BLA BLA BLA BLA BLA 
BLA BLA BLA BLA BLA BLA BLA BLA BLA BLA BLA BLA BLA BLA BLA BLA BLA BLA BLA BLA 
BLA BLA BLA BLA BLA BLA BLA BLA BLA BLA BLA BLA BLA BLA BLA BLA BLA BLA BLA BLA 
BLA BLA BLA BLA BLA BLA BLA BLA BLA BLA BLA BLA BLA BLA BLA BLA BLA BLA BLA BLA 
BLA BLA BLA BLA BLA BLA BLA BLA BLA BLA BLA BLA BLA BLA BLA BLA BLA BLA BLA BLA 
BLA BLA BLA BLA BLA BLA BLA BLA BLA BLA BLA BLA BLA BLA BLA BLA BLA BLA BLA BLA 
BLA BLA BLA BLA BLA BLA BLA BLA BLA BLA BLA BLA BLA BLA BLA BLA BLA BLA BLA BLA 
BLA BLA BLA BLA BLA BLA BLA BLA BLA BLA BLA BLA BLA BLA BLA BLA BLA BLA BLA BLA 
BLA BLA BLA BLA BLA BLA BLA BLA BLA BLA BLA BLA BLA BLA BLA BLA BLA BLA BLA BLA 
BLA BLA BLA BLA BLA BLA BLA BLA BLA BLA BLA BLA BLA BLA BLA BLA BLA BLA BLA BLA 
BLA BLA BLA BLA BLA BLA BLA BLA BLA BLA BLA BLA BLA BLA BLA BLA BLA BLA BLA BLA 
BLA BLA BLA BLA BLA BLA BLA BLA BLA BLA BLA BLA BLA BLA BLA BLA BLA BLA BLA BLA 
BLA BLA BLA BLA BLA BLA BLA BLA BLA BLA BLA BLA BLA BLA BLA BLA BLA BLA BLA BLA 
BLA BLA BLA BLA BLA BLA BLA BLA BLA BLA BLA BLA BLA BLA BLA BLA BLA BLA BLA BLA 
BLA BLA BLA BLA BLA BLA BLA BLA BLA BLA BLA BLA BLA BLA BLA BLA BLA BLA BLA BLA 
BLA BLA BLA BLA BLA BLA BLA BLA BLA BLA BLA BLA BLA BLA BLA BLA BLA BLA BLA BLA 
BLA BLA BLA BLA BLA BLA BLA BLA BLA BLA BLA BLA BLA BLA BLA BLA BLA BLA BLA BLA 
BLA BLA BLA BLA BLA BLA BLA BLA BLA BLA BLA BLA BLA BLA BLA BLA BLA BLA BLA BLA 
BLA BLA BLA BLA BLA BLA BLA BLA BLA BLA BLA BLA BLA BLA BLA BLA BLA BLA BLA BLA 
BLA BLA BLA BLA BLA BLA BLA BLA BLA BLA BLA BLA BLA BLA BLA BLA BLA BLA BLA BLA 
BLA BLA BLA BLA BLA BLA BLA BLA BLA BLA BLA BLA BLA BLA BLA BLA BLA BLA BLA BLA 
BLA BLA BLA BLA BLA BLA BLA BLA BLA BLA BLA BLA BLA BLA BLA BLA BLA BLA BLA BLA 
BLA BLA BLA BLA BLA BLA BLA BLA BLA BLA BLA BLA BLA BLA BLA BLA BLA BLA BLA BLA 
BLA BLA BLA BLA BLA BLA BLA BLA BLA BLA BLA BLA BLA BLA BLA BLA BLA BLA BLA BLA 
BLA BLA BLA BLA BLA BLA BLA BLA BLA BLA BLA BLA BLA BLA BLA BLA BLA BLA BLA BLA 
BLA BLA BLA BLA BLA BLA BLA BLA BLA BLA BLA BLA BLA BLA BLA BLA BLA BLA BLA BLA 
BLA BLA BLA BLA BLA BLA BLA BLA BLA BLA BLA BLA BLA BLA BLA BLA BLA BLA BLA BLA 
BLA BLA BLA BLA BLA BLA BLA BLA BLA BLA BLA BLA BLA BLA BLA BLA BLA BLA BLA BLA 
BLA BLA BLA BLA BLA BLA BLA BLA BLA BLA BLA BLA BLA BLA BLA BLA BLA BLA BLA BLA 
BLA BLA BLA BLA BLA BLA BLA BLA BLA BLA BLA BLA BLA BLA BLA BLA BLA BLA BLA BLA 
BLA BLA BLA BLA BLA BLA BLA BLA BLA BLA BLA BLA BLA BLA BLA BLA BLA BLA BLA BLA 
BLA BLA BLA BLA BLA BLA BLA BLA BLA BLA BLA BLA BLA BLA BLA BLA BLA BLA BLA BLA 
BLA BLA BLA BLA BLA BLA BLA BLA BLA BLA BLA BLA BLA BLA BLA BLA BLA BLA BLA BLA 
BLA BLA BLA BLA BLA BLA BLA BLA BLA BLA BLA BLA BLA BLA BLA BLA BLA BLA BLA BLA 
BLA BLA BLA BLA BLA BLA BLA BLA BLA BLA BLA BLA BLA BLA BLA BLA BLA BLA BLA BLA 
BLA BLA BLA BLA BLA BLA BLA BLA BLA BLA BLA BLA BLA BLA BLA BLA BLA BLA BLA BLA 
BLA BLA BLA BLA BLA BLA BLA BLA BLA BLA BLA BLA BLA BLA BLA BLA BLA BLA BLA BLA 
BLA BLA BLA BLA BLA BLA BLA BLA BLA BLA BLA BLA BLA BLA BLA BLA BLA BLA BLA BLA 
BLA BLA BLA BLA BLA BLA BLA BLA BLA BLA BLA BLA BLA BLA BLA BLA BLA BLA BLA BLA 
BLA BLA BLA BLA BLA BLA BLA BLA BLA BLA BLA BLA BLA BLA BLA BLA BLA BLA BLA BLA 
BLA BLA BLA BLA BLA BLA BLA BLA BLA BLA BLA BLA BLA BLA BLA BLA BLA BLA BLA BLA 
BLA BLA BLA BLA BLA BLA BLA BLA BLA BLA BLA BLA BLA BLA BLA BLA BLA BLA BLA BLA 
BLA BLA BLA BLA BLA BLA BLA BLA BLA BLA BLA BLA BLA BLA BLA BLA BLA BLA BLA BLA 
BLA BLA BLA BLA BLA BLA BLA BLA BLA BLA BLA BLA BLA BLA BLA BLA BLA BLA BLA BLA 
BLA BLA BLA BLA BLA BLA BLA BLA BLA BLA BLA BLA BLA BLA BLA BLA BLA BLA BLA BLA 
BLA BLA BLA BLA BLA BLA BLA BLA BLA BLA BLA BLA BLA BLA BLA BLA BLA BLA BLA BLA 
BLA BLA BLA BLA BLA BLA BLA BLA BLA BLA BLA BLA BLA BLA BLA BLA BLA BLA BLA BLA 
BLA BLA BLA BLA BLA BLA BLA BLA BLA BLA BLA BLA BLA BLA BLA BLA BLA BLA BLA BLA 
BLA BLA BLA BLA BLA BLA BLA BLA BLA BLA BLA BLA BLA BLA BLA BLA BLA BLA BLA BLA 
BLA BLA BLA BLA BLA BLA BLA BLA BLA BLA BLA BLA BLA BLA BLA BLA BLA BLA BLA BLA 
BLA BLA BLA BLA BLA BLA BLA BLA BLA BLA BLA BLA BLA BLA BLA BLA BLA BLA BLA BLA 
BLA BLA BLA BLA BLA BLA BLA BLA BLA BLA BLA BLA BLA BLA BLA BLA BLA BLA BLA BLA 
BLA BLA BLA BLA BLA BLA BLA BLA BLA BLA BLA BLA BLA BLA BLA BLA BLA BLA BLA BLA 
BLA BLA BLA BLA BLA BLA BLA BLA BLA BLA BLA BLA BLA BLA BLA BLA BLA BLA BLA BLA 
BLA BLA BLA BLA BLA BLA BLA BLA BLA BLA BLA BLA BLA BLA BLA BLA BLA BLA BLA BLA 
BLA BLA BLA BLA BLA BLA BLA BLA BLA BLA BLA BLA BLA BLA BLA BLA BLA 
%FLAG JOIN_ARRAY                                                                
%FORMAT(10I8)                                                                   
       0       0       0       0       0       0       0       0       0       0
       0       0       0       0       0       0       0       0       0       0
       0       0       0       0       0       0       0       0       0       0
       0       0       0       0       0       0       0       0       0       0
       0       0       0       0       0       0       0       0       0       0
       0       0       0       0       0       0       0       0       0       0
       0       0       0       0       0       0       0       0       0       0
       0       0       0       0       0       0       0       0       0       0
       0       0       0       0       0       0       0       0       0       0
       0       0       0       0       0       0       0       0       0       0
       0       0       0       0       0       0       0       0       0       0
       0       0       0       0       0       0       0       0       0       0
       0       0       0       0       0       0       0       0       0       0
       0       0       0       0       0       0       0       0       0       0
       0       0       0       0       0       0       0       0       0       0
       0       0       0       0       0       0       0       0       0       0
       0       0       0       0       0       0       0       0       0       0
       0       0       0       0       0       0       0       0       0       0
       0       0       0       0       0       0       0       0       0       0
       0       0       0       0       0       0       0       0       0       0
       0       0       0       0       0       0       0       0       0       0
       0       0       0       0       0       0       0       0       0       0
       0       0       0       0       0       0       0       0       0       0
       0       0       0       0       0       0       0       0       0       0
       0       0       0       0       0       0       0       0       0       0
       0       0       0       0       0       0       0       0       0       0
       0       0       0       0       0       0       0       0       0       0
       0       0       0       0       0       0       0       0       0       0
       0       0       0       0       0       0       0       0       0       0
       0       0       0       0       0       0       0       0       0       0
       0       0       0       0       0       0       0       0       0       0
       0       0       0       0       0       0       0       0       0       0
       0       0       0       0       0       0       0       0       0       0
       0       0       0       0       0       0       0       0       0       0
       0       0       0       0       0       0       0       0       0       0
       0       0       0       0       0       0       0       0       0       0
       0       0       0       0       0       0       0       0       0       0
       0       0       0       0       0       0       0       0       0       0
       0       0       0       0       0       0       0       0       0       0
       0       0       0       0       0       0       0       0       0       0
       0       0       0       0       0       0       0       0       0       0
       0       0       0       0       0       0       0       0       0       0
       0       0       0       0       0       0       0       0       0       0
       0       0       0       0       0       0       0       0       0       0
       0       0       0       0       0       0       0       0       0       0
       0       0       0       0       0       0       0       0       0       0
       0       0       0       0       0       0       0       0       0       0
       0       0       0       0       0       0       0       0       0       0
       0       0       0       0       0       0       0       0       0       0
       0       0       0       0       0       0       0       0       0       0
       0       0       0       0       0       0       0       0       0       0
       0       0       0       0       0       0       0       0       0       0
       0       0       0       0       0       0       0       0       0       0
       0       0       0       0       0       0       0       0       0       0
       0       0       0       0       0       0       0       0       0       0
       0       0       0       0       0       0       0       0       0       0
       0       0       0       0       0       0       0       0       0       0
       0       0       0       0       0       0       0       0       0       0
       0       0       0       0       0       0       0       0       0       0
       0       0       0       0       0       0       0       0       0       0
       0       0       0       0       0       0       0       0       0       0
       0       0       0       0       0       0       0       0       0       0
       0       0       0       0       0       0       0       0       0       0
       0       0       0       0       0       0       0       0       0       0
       0       0       0       0       0       0       0       0       0       0
       0       0       0       0       0       0       0       0       0       0
       0       0       0       0       0       0       0       0       0       0
       0       0       0       0       0       0       0       0       0       0
       0       0       0       0       0       0       0       0       0       0
       0       0       0       0       0       0       0       0       0       0
       0       0       0       0       0       0       0       0       0       0
       0       0       0       0       0       0       0       0       0       0
       0       0       0       0       0       0       0       0       0       0
       0       0       0       0       0       0       0       0       0       0
       0       0       0       0       0       0       0       0       0       0
       0       0       0       0       0       0       0       0       0       0
       0       0       0       0       0       0       0       0       0       0
       0       0       0       0       0       0       0       0       0       0
       0       0       0       0       0       0       0       0       0       0
       0       0       0       0       0       0       0       0       0       0
       0       0       0       0       0       0       0       0       0       0
       0       0       0       0       0       0       0       0       0       0
       0       0       0       0       0       0       0       0       0       0
       0       0       0       0       0       0       0       0       0       0
       0       0       0       0       0       0       0       0       0       0
       0       0       0       0       0       0       0       0       0       0
       0       0       0       0       0       0       0       0       0       0
       0       0       0       0       0       0       0       0       0       0
       0       0       0       0       0       0       0       0       0       0
       0       0       0       0       0       0       0       0       0       0
       0       0       0       0       0       0       0       0       0       0
       0       0       0       0       0       0       0       0       0       0
       0       0       0       0       0       0       0       0       0       0
       0       0       0       0       0       0       0       0       0       0
       0       0       0       0       0       0       0       0       0       0
       0       0       0       0       0       0       0       0       0       0
       0       0       0       0       0       0       0       0       0       0
       0       0       0       0       0       0       0       0       0       0
       0       0       0       0       0       0       0       0       0       0
       0       0       0       0       0       0       0       0       0       0
       0       0       0       0       0       0       0       0       0       0
       0       0       0       0       0       0       0       0       0       0
       0       0       0       0       0       0       0       0       0       0
       0       0       0       0       0       0       0       0       0       0
       0       0       0       0       0       0       0       0       0       0
       0       0       0       0       0       0       0       0       0       0
       0       0       0       0       0       0       0       0       0       0
       0       0       0       0       0       0       0       0       0       0
       0       0       0       0       0       0       0       0       0       0
       0       0       0       0       0       0       0       0       0       0
       0       0       0       0       0       0       0       0       0       0
       0       0       0       0       0       0       0       0       0       0
       0       0       0       0       0       0       0       0       0       0
       0       0       0       0       0       0       0       0       0       0
       0       0       0       0       0       0       0       0       0       0
       0       0       0       0       0       0       0       0       0       0
       0       0       0       0       0       0       0       0       0       0
       0       0       0       0       0       0       0       0       0       0
       0       0       0       0       0       0       0       0       0       0
       0       0       0       0       0       0       0       0       0       0
       0       0       0       0       0       0       0       0       0       0
       0       0       0       0       0       0       0       0       0       0
       0       0       0       0       0       0       0       0       0       0
       0       0       0       0       0       0       0       0       0       0
       0       0       0       0       0       0       0       0       0       0
       0       0       0       0       0       0       0       0       0       0
       0       0       0       0       0       0       0       0       0       0
       0       0       0       0       0       0       0       0       0       0
       0       0       0       0       0       0       0       0       0       0
       0       0       0       0       0       0       0       0       0       0
       0       0       0       0       0       0       0       0       0       0
       0       0       0       0       0       0       0       0       0       0
       0       0       0       0       0       0       0       0       0       0
       0       0       0       0       0       0       0       0       0       0
       0       0       0       0       0       0       0       0       0       0
       0       0       0       0       0       0       0       0       0       0
       0       0       0       0       0       0       0       0       0       0
       0       0       0       0       0       0       0       0       0       0
       0       0       0       0       0       0       0       0       0       0
       0       0       0       0       0       0       0       0       0       0
       0       0       0       0       0       0       0       0       0       0
       0       0       0       0       0       0       0       0       0       0
       0       0       0       0       0       0       0       0       0       0
       0       0       0       0       0       0       0       0       0       0
       0       0       0       0       0       0       0       0       0       0
       0       0       0       0       0       0       0       0       0       0
       0       0       0       0       0       0       0       0       0       0
       0       0       0       0       0       0       0       0       0       0
       0       0       0       0       0       0       0       0       0       0
       0       0       0       0       0       0       0       0       0       0
       0       0       0       0       0       0       0       0       0       0
       0       0       0       0       0       0       0       0       0       0
       0       0       0       0       0       0       0       0       0       0
       0       0       0       0       0       0       0       0       0       0
       0       0       0       0       0       0       0       0       0       0
       0       0       0       0       0       0       0       0       0       0
       0       0       0       0       0       0       0       0       0       0
       0       0       0       0       0       0       0       0       0       0
       0       0       0       0       0       0       0       0       0       0
       0       0       0       0       0       0       0       0       0       0
       0       0       0       0       0       0       0       0       0       0
       0       0       0       0       0       0       0       0       0       0
       0       0       0       0       0       0       0       0       0       0
       0       0       0       0       0       0       0       0       0       0
       0       0       0       0       0       0       0       0       0       0
       0       0       0       0       0       0       0       0       0       0
       0       0       0       0       0       0       0       0       0       0
       0       0       0       0       0       0       0       0       0       0
       0       0       0       0       0       0       0       0       0       0
       0       0       0       0       0       0       0       0       0       0
       0       0       0       0       0       0       0       0       0       0
       0       0       0       0       0       0       0       0       0       0
       0       0       0       0       0       0       0       0       0       0
       0       0       0       0       0       0       0       0       0       0
       0       0       0       0       0       0       0       0       0       0
       0       0       0       0       0       0       0       0       0       0
       0       0       0       0       0       0       0       0       0       0
       0       0       0       0       0       0       0       0       0       0
       0       0       0       0       0       0       0       0       0       0
       0       0       0       0       0       0       0       0       0       0
       0       0       0       0       0       0       0       0       0       0
       0       0       0       0       0       0       0       0       0       0
       0       0       0       0       0       0       0       0       0       0
       0       0       0       0       0       0       0       0       0       0
       0       0       0       0       0       0       0       0       0       0
       0       0       0       0       0       0       0       0       0       0
       0       0       0       0       0       0       0       0       0       0
       0       0       0       0       0       0       0       0       0       0
       0       0       0       0       0       0       0       0       0       0
       0       0       0       0       0       0       0       0       0       0
       0       0       0       0       0       0       0       0       0       0
       0       0       0       0       0       0       0       0       0       0
       0       0       0       0       0       0       0       0       0       0
       0       0       0       0       0       0       0       0       0       0
       0       0       0       0       0       0       0       0       0       0
       0       0       0       0       0       0       0       0       0       0
       0       0       0       0       0       0       0       0       0       0
       0       0       0       0       0       0       0       0       0       0
       0       0       0       0       0       0       0       0       0       0
       0       0       0       0       0       0       0       0       0       0
       0       0       0       0       0       0       0       0       0       0
       0       0       0       0       0       0       0       0       0       0
       0       0       0       0       0       0       0       0       0       0
       0       0       0       0       0       0       0       0       0       0
       0       0       0       0       0       0       0       0       0       0
       0       0       0       0       0       0       0       0       0       0
       0       0       0       0       0       0       0       0       0       0
       0       0       0       0       0       0       0       0       0       0
       0       0       0       0       0       0       0       0       0       0
       0       0       0       0       0       0       0       0       0       0
       0       0       0       0       0       0       0       0       0       0
       0       0       0       0       0       0       0       0       0       0
       0       0       0       0       0       0       0       0       0       0
       0       0       0       0       0       0       0       0       0       0
       0       0       0       0       0       0       0       0       0       0
       0       0       0       0       0       0       0       0       0       0
       0       0       0       0       0       0       0       0       0       0
       0       0       0       0       0       0       0       0       0       0
       0       0       0       0       0       0       0       0       0       0
       0       0       0       0       0       0       0       0       0       0
       0       0       0       0       0       0       0       0       0       0
       0       0       0       0       0       0       0       0       0       0
       0       0       0       0       0       0       0       0       0       0
       0       0       0       0       0       0       0       0       0       0
       0       0       0       0       0       0       0       0       0       0
       0       0       0       0       0       0       0       0       0       0
       0       0       0       0       0       0       0       0       0       0
       0       0       0       0       0       0       0       0       0       0
       0       0       0       0       0       0       0       0       0       0
       0       0       0       0       0       0       0       0       0       0
       0       0       0       0       0       0       0       0       0       0
       0       0       0       0       0       0       0       0       0       0
       0       0       0       0       0       0       0       0       0       0
       0       0       0       0       0       0       0       0       0       0
       0       0       0       0       0       0       0       0       0       0
       0       0       0       0       0       0       0       0       0       0
       0       0       0       0       0       0       0       0       0       0
       0       0       0       0       0       0       0       0       0       0
       0       0       0       0       0       0       0       0       0       0
       0       0       0       0       0       0       0       0       0       0
       0       0       0       0       0       0       0       0       0       0
       0       0       0       0       0       0       0       0       0       0
       0       0       0       0       0       0       0       0       0       0
       0       0       0       0       0       0       0       0       0       0
       0       0       0       0       0       0       0       0       0       0
       0       0       0       0       0       0       0       0       0       0
       0       0       0       0       0       0       0       0       0       0
       0       0       0       0       0       0       0       0       0       0
       0       0       0       0       0       0       0       0       0       0
       0       0       0       0       0       0       0       0       0       0
       0       0       0       0       0       0       0       0       0       0
       0       0       0       0       0       0       0       0       0       0
       0       0       0       0       0       0       0       0       0       0
       0       0       0       0       0       0       0       0       0       0
       0       0       0       0       0       0       0       0       0       0
       0       0       0       0       0       0       0       0       0       0
       0       0       0       0       0       0       0       0       0       0
       0       0       0       0       0       0       0       0       0       0
       0       0       0       0       0       0       0       0       0       0
       0       0       0       0       0       0       0       0       0       0
       0       0       0       0       0       0       0       0       0       0
       0       0       0       0       0       0       0       0       0       0
       0       0       0       0       0       0       0       0       0       0
       0       0       0       0       0       0       0       0       0       0
       0       0       0       0       0       0       0       0       0       0
       0       0       0       0       0       0       0       0       0       0
       0       0       0       0       0       0       0       0       0       0
       0       0       0       0       0       0       0       0       0       0
       0       0       0       0       0       0       0       0       0       0
       0       0       0       0       0       0       0       0       0       0
       0       0       0       0       0       0       0       0       0       0
       0       0       0       0       0       0       0       0       0       0
       0       0       0       0       0       0       0       0       0       0
       0       0       0       0       0       0       0       0       0       0
       0       0       0       0       0       0       0       0       0       0
       0       0       0       0       0       0       0       0       0       0
       0       0       0       0       0       0       0       0       0       0
       0       0       0       0       0       0       0       0       0       0
       0       0       0       0       0       0       0       0       0       0
       0       0       0       0       0       0       0       0       0       0
       0       0       0       0       0       0       0       0       0       0
       0       0       0       0       0       0       0       0       0       0
       0       0       0       0       0       0       0       0       0       0
       0       0       0       0       0       0       0       0       0       0
       0       0       0       0       0       0       0       0       0       0
       0       0       0       0       0       0       0       0       0       0
       0       0       0       0       0       0       0       0       0       0
       0       0       0       0       0       0       0       0       0       0
       0       0       0       0       0       0       0       0       0       0
       0       0       0       0       0       0       0       0       0       0
       0       0       0       0       0       0       0       0       0       0
       0       0       0       0       0       0       0       0       0       0
       0       0       0       0       0       0       0       0       0       0
       0       0       0       0       0       0       0       0       0       0
       0       0       0       0       0       0       0       0       0       0
       0       0       0       0       0       0       0       0       0       0
       0       0       0       0       0       0       0       0       0       0
       0       0       0       0       0       0       0       0       0       0
       0       0       0       0       0       0       0       0       0       0
       0       0       0       0       0       0       0       0       0       0
       0       0       0       0       0       0       0       0       0       0
       0       0       0       0       0       0       0       0       0       0
       0       0       0       0       0       0       0       0       0       0
       0       0       0       0       0       0       0       0       0       0
       0       0       0       0       0       0       0       0       0       0
       0       0       0       0       0       0       0       0       0       0
       0       0       0       0       0       0       0       0       0       0
       0       0       0       0       0       0       0       0       0       0
       0       0       0       0       0       0       0       0       0       0
       0       0       0       0       0       0       0       0       0       0
       0       0       0       0       0       0       0       0       0       0
       0       0       0       0       0       0       0       0       0       0
       0       0       0       0       0       0       0       0       0       0
       0       0       0       0       0       0       0       0       0       0
       0       0       0       0       0       0       0       0       0       0
       0       0       0       0       0       0       0       0       0       0
       0       0       0       0       0       0       0       0       0       0
       0       0       0       0       0       0       0       0       0       0
       0       0       0       0       0       0       0       0       0       0
       0       0       0       0       0       0       0       0       0       0
       0       0       0       0       0       0       0       0       0       0
       0       0       0       0       0       0       0       0       0       0
       0       0       0       0       0       0       0       0       0       0
       0       0       0       0       0       0       0       0       0       0
       0       0       0       0       0       0       0       0       0       0
       0       0       0       0       0       0       0       0       0       0
       0       0       0       0       0       0       0       0       0       0
       0       0       0       0       0       0       0       0       0       0
       0       0       0       0       0       0       0       0       0       0
       0       0       0       0       0       0       0       0       0       0
       0       0       0       0       0       0       0       0       0       0
       0       0       0       0       0       0       0       0       0       0
       0       0       0       0       0       0       0       0       0       0
       0       0       0       0       0       0       0       0       0       0
       0       0       0       0       0       0       0       0       0       0
       0       0       0       0       0       0       0       0       0       0
       0       0       0       0       0       0       0       0       0       0
       0       0       0       0       0       0       0       0       0       0
       0       0       0       0       0       0       0       0       0       0
       0       0       0       0       0       0       0       0       0       0
       0       0       0       0       0       0       0       0       0       0
       0       0       0       0       0       0       0       0       0       0
       0       0       0       0       0       0       0       0       0       0
       0       0       0       0       0       0       0       0       0       0
       0       0       0       0       0       0       0       0       0       0
       0       0       0       0       0       0       0       0       0       0
       0       0       0       0       0       0       0       0       0       0
       0       0       0       0       0       0       0       0       0       0
       0       0       0       0       0       0       0       0       0       0
       0       0       0       0       0       0       0       0       0       0
       0       0       0       0       0       0       0       0       0       0
       0       0       0       0       0       0       0       0       0       0
       0       0       0       0       0       0       0       0       0       0
       0       0       0       0       0       0       0       0       0       0
       0       0       0       0       0       0       0       0       0       0
       0       0       0       0       0       0       0       0       0       0
       0       0       0       0       0       0       0       0       0       0
       0       0       0       0       0       0       0       0       0       0
       0       0       0       0       0       0       0       0       0       0
       0       0       0       0       0       0       0       0       0       0
       0       0       0       0       0       0       0       0       0       0
       0       0       0       0       0       0       0       0       0       0
       0       0       0       0       0       0       0       0       0       0
       0       0       0       0       0       0       0       0       0       0
       0       0       0       0       0       0       0       0       0       0
       0       0       0       0       0       0       0       0       0       0
       0       0       0       0       0       0       0       0       0       0
       0       0       0       0       0       0       0       0       0       0
       0       0       0       0       0       0       0       0       0       0
       0       0       0       0       0       0       0       0       0       0
       0       0       0       0       0       0       0       0       0       0
       0       0       0       0       0       0       0       0       0       0
       0       0       0       0       0       0       0       0       0       0
       0       0       0       0       0       0       0       0       0       0
       0       0       0       0       0       0       0       0       0       0
       0       0       0       0       0       0       0       0       0       0
       0       0       0       0       0       0       0       0       0       0
       0       0       0       0       0       0       0       0       0       0
       0       0       0       0       0       0       0       0       0       0
       0       0       0       0       0       0       0       0       0       0
       0       0       0       0       0       0       0       0       0       0
       0       0       0       0       0       0       0       0       0       0
       0       0       0       0       0       0       0       0       0       0
       0       0       0       0       0       0       0       0       0       0
       0       0       0       0       0       0       0       0       0       0
       0       0       0       0       0       0       0       0       0       0
       0       0       0       0       0       0       0       0       0       0
       0       0       0       0       0       0       0       0       0       0
       0       0       0       0       0       0       0       0       0       0
       0       0       0       0       0       0       0       0       0       0
       0       0       0       0       0       0       0       0       0       0
       0       0       0       0       0       0       0       0       0       0
       0       0       0       0       0       0       0       0       0       0
       0       0       0       0       0       0       0       0       0       0
       0       0       0       0       0       0       0       0       0       0
       0       0       0       0       0       0       0       0       0       0
       0       0       0       0       0       0       0       0       0       0
       0       0       0       0       0       0       0       0       0       0
       0       0       0       0       0       0       0       0       0       0
       0       0       0       0       0       0       0       0       0       0
       0       0       0       0       0       0       0       0       0       0
       0       0       0       0       0       0       0       0       0       0
       0       0       0       0       0       0       0       0       0       0
       0       0       0       0       0       0       0       0       0       0
       0       0       0       0       0       0       0       0       0       0
       0       0       0       0       0       0       0       0       0       0
       0       0       0       0       0       0       0       0       0       0
       0       0       0       0       0       0       0       0       0       0
       0       0       0       0       0       0       0       0       0       0
       0       0       0       0       0       0       0       0       0       0
       0       0       0       0       0       0       0       0       0       0
       0       0       0       0       0       0       0       0       0       0
       0       0       0       0       0       0       0       0       0       0
       0       0       0       0       0       0       0       0       0       0
       0       0       0       0       0       0       0       0       0       0
       0       0       0       0       0       0       0       0       0       0
       0       0       0       0       0       0       0       0       0       0
       0       0       0       0       0       0       0       0       0       0
       0       0       0       0       0       0       0       0       0       0
       0       0       0       0       0       0       0       0       0       0
       0       0       0       0       0       0       0       0       0       0
       0       0       0       0       0       0       0       0       0       0
       0       0       0       0       0       0       0       0       0       0
       0       0       0       0       0       0       0       0       0       0
       0       0       0       0       0       0       0       0       0       0
       0       0       0       0       0       0       0       0       0       0
       0       0       0       0       0       0       0       0       0       0
       0       0       0       0       0       0       0       0       0       0
       0       0       0       0       0       0       0       0       0       0
       0       0       0       0       0       0       0       0       0       0
       0       0       0       0       0       0       0       0       0       0
       0       0       0       0       0       0       0       0       0       0
       0       0       0       0       0       0       0       0       0       0
       0       0       0       0       0       0       0       0       0       0
       0       0       0       0       0       0       0       0       0       0
       0       0       0       0       0       0       0       0       0       0
       0       0       0       0       0       0       0       0       0       0
       0       0       0       0       0       0       0       0       0       0
       0       0       0       0       0       0       0       0       0       0
       0       0       0       0       0       0       0       0       0       0
       0       0       0       0       0       0       0       0       0       0
       0       0       0       0       0       0       0       0       0       0
       0       0       0       0       0       0       0       0       0       0
       0       0       0       0       0       0       0       0       0       0
       0       0       0       0       0       0       0       0       0       0
       0       0       0       0       0       0       0       0       0       0
       0       0       0       0       0       0       0       0       0       0
       0       0       0       0       0       0       0       0       0       0
       0       0       0       0       0       0       0       0       0       0
       0       0       0       0       0       0       0       0       0       0
       0       0       0       0       0       0       0       0       0       0
       0       0       0       0       0       0       0       0       0       0
       0       0       0       0       0       0       0       0       0       0
       0       0       0       0       0       0       0       0       0       0
       0       0       0       0       0       0       0       0       0       0
       0       0       0       0       0       0       0       0       0       0
       0       0       0       0       0       0       0       0       0       0
       0       0       0       0       0       0       0       0       0       0
       0       0       0       0       0       0       0       0       0       0
       0       0       0       0       0       0       0       0       0       0
       0       0       0       0       0       0       0       0       0       0
       0       0       0       0       0       0       0       0       0       0
       0       0       0       0       0       0       0       0       0       0
       0       0       0       0       0       0       0       0       0       0
       0       0       0       0       0       0       0       0       0       0
       0       0       0       0       0       0       0       0       0       0
       0       0       0       0       0       0       0       0       0       0
       0       0       0       0       0       0       0       0       0       0
       0       0       0       0       0       0       0       0       0       0
       0       0       0       0       0       0       0       0       0       0
       0       0       0       0       0       0       0       0       0       0
       0       0       0       0       0       0       0       0       0       0
       0       0       0       0       0       0       0       0       0       0
       0       0       0       0       0       0       0       0       0       0
       0       0       0       0       0       0       0       0       0       0
       0       0       0       0       0       0       0       0       0       0
       0       0       0       0       0       0       0       0       0       0
       0       0       0       0       0       0       0       0       0       0
       0       0       0       0       0       0       0       0       0       0
       0       0       0       0       0       0       0       0       0       0
       0       0       0       0       0       0       0       0       0       0
       0       0       0       0       0       0       0       0       0       0
       0       0       0       0       0       0       0       0       0       0
       0       0       0       0       0       0       0       0       0       0
       0       0       0       0       0       0       0       0       0       0
       0       0       0       0       0       0       0       0       0       0
       0       0       0       0       0       0       0       0       0       0
       0       0       0       0       0       0       0       0       0       0
       0       0       0       0       0       0       0       0       0       0
       0       0       0       0       0       0       0       0       0       0
       0       0       0       0       0       0       0       0       0       0
       0       0       0       0       0       0       0       0       0       0
       0       0       0       0       0       0       0       0       0       0
       0       0       0       0       0       0       0       0       0       0
       0       0       0       0       0       0       0       0       0       0
       0       0       0       0       0       0       0       0       0       0
       0       0       0       0       0       0       0       0       0       0
       0       0       0       0       0       0       0       0       0       0
       0       0       0       0       0       0       0       0       0       0
       0       0       0       0       0       0       0       0       0       0
       0       0       0       0       0       0       0       0       0       0
       0       0       0       0       0       0       0       0       0       0
       0       0       0       0       0       0       0       0       0       0
       0       0       0       0       0       0       0       0       0       0
       0       0       0       0       0       0       0       0       0       0
       0       0       0       0       0       0       0       0       0       0
       0       0       0       0       0       0       0       0       0       0
       0       0       0       0       0       0       0       0       0       0
       0       0       0       0       0       0       0       0       0       0
       0       0       0       0       0       0       0       0       0       0
       0       0       0       0       0       0       0       0       0       0
       0       0       0       0       0       0       0       0       0       0
       0       0       0       0       0       0       0       0       0       0
       0       0       0       0       0       0       0       0       0       0
       0       0       0       0       0       0       0       0       0       0
       0       0       0       0       0       0       0       0       0       0
       0       0       0       0       0       0       0       0       0       0
       0       0       0       0       0       0       0       0       0       0
       0       0       0       0       0       0       0       0       0       0
       0       0       0       0       0       0       0       0       0       0
       0       0       0       0       0       0       0       0       0       0
       0       0       0       0       0       0       0       0       0       0
       0       0       0       0       0       0       0       0       0       0
       0       0       0       0       0       0       0       0       0       0
       0       0       0       0       0       0       0       0       0       0
       0       0       0       0       0       0       0       0       0       0
       0       0       0       0       0       0       0       0       0       0
       0       0       0       0       0       0       0       0       0       0
       0       0       0       0       0       0       0       0       0       0
       0       0       0       0       0       0       0       0       0       0
       0       0       0       0       0       0       0       0       0       0
       0       0       0       0       0       0       0       0       0       0
       0       0       0       0       0       0       0       0       0       0
       0       0       0       0       0       0       0       0       0       0
       0       0       0       0       0       0       0       0       0       0
       0       0       0       0       0       0       0       0       0       0
       0       0       0       0       0       0       0       0       0       0
       0       0       0       0       0       0       0       0       0       0
       0       0       0       0       0       0       0       0       0       0
       0       0       0       0       0       0       0       0       0       0
       0       0       0       0       0       0       0       0       0       0
       0       0       0       0       0       0       0       0       0       0
       0       0       0       0       0       0       0       0       0       0
       0       0       0       0       0       0       0       0       0       0
       0       0       0       0       0       0       0       0       0       0
       0       0       0       0       0       0       0       0       0       0
       0       0       0       0       0       0       0       0       0       0
       0       0       0       0       0       0       0       0       0       0
       0       0       0       0       0       0       0       0       0       0
       0       0       0       0       0       0       0       0       0       0
       0       0       0       0       0       0       0       0       0       0
       0       0       0       0       0       0       0       0       0       0
       0       0       0       0       0       0       0       0       0       0
       0       0       0       0       0       0       0       0       0       0
       0       0       0       0       0       0       0       0       0       0
       0       0       0       0       0       0       0       0       0       0
       0       0       0       0       0       0       0       0       0       0
       0       0       0       0       0       0       0       0       0       0
       0       0       0       0       0       0       0       0       0       0
       0       0       0       0       0       0       0       0       0       0
       0       0       0       0       0       0       0       0       0       0
       0       0       0       0       0       0       0       0       0       0
       0       0       0       0       0       0       0       0       0       0
       0       0       0       0       0       0       0       0       0       0
       0       0       0       0       0       0       0       0       0       0
       0       0       0       0       0       0       0       0       0       0
       0       0       0       0       0       0       0       0       0       0
       0       0       0       0       0       0       0       0       0       0
       0       0       0       0       0       0       0       0       0       0
       0       0       0       0       0       0       0       0       0       0
       0       0       0       0       0       0       0       0       0       0
       0       0       0       0       0       0       0       0       0       0
       0       0       0       0       0       0       0       0       0       0
       0       0       0       0       0       0       0       0       0       0
       0       0       0       0       0       0       0       0       0       0
       0       0       0       0       0       0       0       0       0       0
       0       0       0       0       0       0       0       0       0       0
       0       0       0       0       0       0       0       0       0       0
       0       0       0       0       0       0       0       0       0       0
       0       0       0       0       0       0       0       0       0       0
       0       0       0       0       0       0       0       0       0       0
       0       0       0       0       0       0       0       0       0       0
       0       0       0       0       0       0       0       0       0       0
       0       0       0       0       0       0       0       0       0       0
       0       0       0       0       0       0       0       0       0       0
       0       0       0       0       0       0       0       0       0       0
       0       0       0       0       0       0       0       0       0       0
       0       0       0       0       0       0       0       0       0       0
       0       0       0       0       0       0       0       0       0       0
       0       0       0       0       0       0       0       0       0       0
       0       0       0       0       0       0       0       0       0       0
       0       0       0       0       0       0       0       0       0       0
       0       0       0       0       0       0       0       0       0       0
       0       0       0       0       0       0       0       0       0       0
       0       0       0       0       0       0       0       0       0       0
       0       0       0       0       0       0       0       0       0       0
       0       0       0       0       0       0       0       0       0       0
       0       0       0       0       0       0       0       0       0       0
       0       0       0       0       0       0       0       0       0       0
       0       0       0       0       0       0       0       0       0       0
       0       0       0       0       0       0       0       0       0       0
       0       0       0       0       0       0       0       0       0       0
       0       0       0       0       0       0       0       0       0       0
       0       0       0       0       0       0       0       0       0       0
       0       0       0       0       0       0       0       0       0       0
       0       0       0       0       0       0       0       0       0       0
       0       0       0       0       0       0       0       0       0       0
       0       0       0       0       0       0       0       0       0       0
       0       0       0       0       0       0       0       0       0       0
       0       0       0       0       0       0       0       0       0       0
       0       0       0       0       0       0       0       0       0       0
       0       0       0       0       0       0       0       0       0       0
       0       0       0       0       0       0       0       0       0       0
       0       0       0       0       0       0       0       0       0       0
       0       0       0       0       0       0       0       0       0       0
       0       0       0       0       0       0       0       0       0       0
       0       0       0       0       0       0       0       0       0       0
       0       0       0       0       0       0       0       0       0       0
       0       0       0       0       0       0       0       0       0       0
       0       0       0       0       0       0       0       0       0       0
       0       0       0       0       0       0       0       0       0       0
       0       0       0       0       0       0       0       0       0       0
       0       0       0       0       0       0       0       0       0       0
       0       0       0       0       0       0       0       0       0       0
       0       0       0       0       0       0       0       0       0       0
       0       0       0       0       0       0       0       0       0       0
       0       0       0       0       0       0       0       0       0       0
       0       0       0       0       0       0       0       0       0       0
       0       0       0       0       0       0       0       0       0       0
       0       0       0       0       0       0       0       0       0       0
       0       0       0       0       0       0       0       0       0       0
       0       0       0       0       0       0       0       0       0       0
       0       0       0       0       0       0       0       0       0       0
       0       0       0       0       0       0       0       0       0       0
       0       0       0       0       0       0       0       0       0       0
       0       0       0       0       0       0       0       0       0       0
       0       0       0       0       0       0       0       0       0       0
       0       0       0       0       0       0       0       0       0       0
       0       0       0       0       0       0       0       0       0       0
       0       0       0       0       0       0       0       0       0       0
       0       0       0       0       0       0       0       0       0       0
       0       0       0       0       0       0       0       0       0       0
       0       0       0       0       0       0       0       0       0       0
       0       0       0       0       0       0       0       0       0       0
       0       0       0       0       0       0       0       0       0       0
       0       0       0       0       0       0       0       0       0       0
       0       0       0       0       0       0       0       0       0       0
       0       0       0       0       0       0       0       0       0       0
       0       0       0       0       0       0       0       0       0       0
       0       0       0       0       0       0       0       0       0       0
       0       0       0       0       0       0       0       0       0       0
       0       0       0       0       0       0       0       0       0       0
       0       0       0       0       0       0       0       0       0       0
       0       0       0       0       0       0       0       0       0       0
       0       0       0       0       0       0       0       0       0       0
       0       0       0       0       0       0       0       0       0       0
       0       0       0       0       0       0       0       0       0       0
       0       0       0       0       0       0       0       0       0       0
       0       0       0       0       0       0       0       0       0       0
       0       0       0       0       0       0       0       0       0       0
       0       0       0       0       0       0       0       0       0       0
       0       0       0       0       0       0       0       0       0       0
       0       0       0       0       0       0       0       0       0       0
       0       0       0       0       0       0       0       0       0       0
       0       0       0       0       0       0       0       0       0       0
       0       0       0       0       0       0       0       0       0       0
       0       0       0       0       0       0       0       0       0       0
       0       0       0       0       0       0       0       0       0       0
       0       0       0       0       0       0       0       0       0       0
       0       0       0       0       0       0       0       0       0       0
       0       0       0       0       0       0       0       0       0       0
       0       0       0       0       0       0       0       0       0       0
       0       0       0       0       0       0       0       0       0       0
       0       0       0       0       0       0       0       0       0       0
       0       0       0       0       0       0       0       0       0       0
       0       0       0       0       0       0       0       0       0       0
       0       0       0       0       0       0       0       0       0       0
       0       0       0       0       0       0       0       0       0       0
       0       0       0       0       0       0       0       0       0       0
       0       0       0       0       0       0       0       0       0       0
       0       0       0       0       0       0       0       0       0       0
       0       0       0       0       0       0       0       0       0       0
       0       0       0       0       0       0       0       0       0       0
       0       0       0       0       0       0       0       0       0       0
       0       0       0       0       0       0       0       0       0       0
       0       0       0       0       0       0       0       0       0       0
       0       0       0       0       0       0       0       0       0       0
       0       0       0       0       0       0       0       0       0       0
       0       0       0       0       0       0       0       0       0       0
       0       0       0       0       0       0       0       0       0       0
       0       0       0       0       0       0       0       0       0       0
       0       0       0       0       0       0       0       0       0       0
       0       0       0       0       0       0       0       0       0       0
       0       0       0       0       0       0       0       0       0       0
       0       0       0       0       0       0       0       0       0       0
       0       0       0       0       0       0       0       0       0       0
       0       0       0       0       0       0       0       0       0       0
       0       0       0       0       0       0       0       0       0       0
       0       0       0       0       0       0       0       0       0       0
       0       0       0       0       0       0       0       0       0       0
       0       0       0       0       0       0       0       0       0       0
       0       0       0       0       0       0       0       0       0       0
       0       0       0       0       0       0       0       0       0       0
       0       0       0       0       0       0       0       0       0       0
       0       0       0       0       0       0       0       0       0       0
       0       0       0       0       0       0       0       0       0       0
       0       0       0       0       0       0       0       0       0       0
       0       0       0       0       0       0       0       0       0       0
       0       0       0       0       0       0       0       0       0       0
       0       0       0       0       0       0       0       0       0       0
       0       0       0       0       0       0       0       0       0       0
       0       0       0       0       0       0       0       0       0       0
       0       0       0       0       0       0       0       0       0       0
       0       0       0       0       0       0       0       0       0       0
       0       0       0       0       0       0       0       0       0       0
       0       0       0       0       0       0       0       0       0       0
       0       0       0       0       0       0       0       0       0       0
       0       0       0       0       0       0       0       0       0       0
       0       0       0       0       0       0       0       0       0       0
       0       0       0       0       0       0       0       0       0       0
       0       0       0       0       0       0       0       0       0       0
       0       0       0       0       0       0       0       0       0       0
       0       0       0       0       0       0       0       0       0       0
       0       0       0       0       0       0       0       0       0       0
       0       0       0       0       0       0       0       0       0       0
       0       0       0       0       0       0       0       0       0       0
       0       0       0       0       0       0       0       0       0       0
       0       0       0       0       0       0       0       0       0       0
       0       0       0       0       0       0       0       0       0       0
       0       0       0       0       0       0       0       0       0       0
       0       0       0       0       0       0       0       0       0       0
       0       0       0       0       0       0       0       0       0       0
       0       0       0       0       0       0       0       0       0       0
       0       0       0       0       0       0       0       0       0       0
       0       0       0       0       0       0       0       0       0       0
       0       0       0       0       0       0       0       0       0       0
       0       0       0       0       0       0       0       0       0       0
       0       0       0       0       0       0       0       0       0       0
       0       0       0       0       0       0       0       0       0       0
       0       0       0       0       0       0       0       0       0       0
       0       0       0       0       0       0       0       0       0       0
       0       0       0       0       0       0       0       0       0       0
       0       0       0       0       0       0       0       0       0       0
       0       0       0       0       0       0       0       0       0       0
       0       0       0       0       0       0       0       0       0       0
       0       0       0       0       0       0       0       0       0       0
       0       0       0       0       0       0       0       0       0       0
       0       0       0       0       0       0       0       0       0       0
       0       0       0       0       0       0       0       0       0       0
       0       0       0       0       0       0       0       0       0       0
       0       0       0       0       0       0       0       0       0       0
       0       0       0       0       0       0       0       0       0       0
       0       0       0       0       0       0       0       0       0       0
       0       0       0       0       0       0       0       0       0       0
       0       0       0       0       0       0       0       0       0       0
       0       0       0       0       0       0       0       0       0       0
       0       0       0       0       0       0       0       0       0       0
       0       0       0       0       0       0       0       0       0       0
       0       0       0       0       0       0       0       0       0       0
       0       0       0       0       0       0       0       0       0       0
       0       0       0       0       0       0       0       0       0       0
       0       0       0       0       0       0       0       0       0       0
       0       0       0       0       0       0       0       0       0       0
       0       0       0       0       0       0       0       0       0       0
       0       0       0       0       0       0       0       0       0       0
       0       0       0       0       0       0       0       0       0       0
       0       0       0       0       0       0       0       0       0       0
       0       0       0       0       0       0       0       0       0       0
       0       0       0       0       0       0       0       0       0       0
       0       0       0       0       0       0       0       0       0       0
       0       0       0       0       0       0       0       0       0       0
       0       0       0       0       0       0       0       0       0       0
       0       0       0       0       0       0       0       0       0       0
       0       0       0       0       0       0       0       0       0       0
       0       0       0       0       0       0       0       0       0       0
       0       0       0       0       0       0       0       0       0       0
       0       0       0       0       0       0       0       0       0       0
       0       0       0       0       0       0       0       0       0       0
       0       0       0       0       0       0       0       0       0       0
       0       0       0       0       0       0       0       0       0       0
       0       0       0       0       0       0       0       0       0       0
       0       0       0       0       0       0       0       0       0       0
       0       0       0       0       0       0       0       0       0       0
       0       0       0       0       0       0       0       0       0       0
       0       0       0       0       0       0       0       0       0       0
       0       0       0       0       0       0       0       0       0       0
       0       0       0       0       0       0       0       0       0       0
       0       0       0       0       0       0       0       0       0       0
       0       0       0       0       0       0       0       0       0       0
       0       0       0       0       0       0       0       0       0       0
       0       0       0       0       0       0       0       0       0       0
       0       0       0       0       0       0       0       0       0       0
       0       0       0       0       0       0       0       0       0       0
       0       0       0       0       0       0       0       0       0       0
       0       0       0       0       0       0       0       0       0       0
       0       0       0       0       0       0       0       0       0       0
       0       0       0       0       0       0       0       0       0       0
       0       0       0       0       0       0       0       0       0       0
       0       0       0       0       0       0       0       0       0       0
       0       0       0       0       0       0       0       0       0       0
       0       0       0       0       0       0       0       0       0       0
       0       0       0       0       0       0       0       0       0       0
       0       0       0       0       0       0       0       0       0       0
       0       0       0       0       0       0       0       0       0       0
       0       0       0       0       0       0       0       0       0       0
       0       0       0       0       0       0       0       0       0       0
       0       0       0       0       0       0       0       0       0       0
       0       0       0       0       0       0       0       0       0       0
       0       0       0       0       0       0       0       0       0       0
       0       0       0       0       0       0       0       0       0       0
       0       0       0       0       0       0       0       0       0       0
       0       0       0       0       0       0       0       0       0       0
       0       0       0       0       0       0       0       0       0       0
       0       0       0       0       0       0       0       0       0       0
       0       0       0       0       0       0       0       0       0       0
       0       0       0       0       0       0       0       0       0       0
       0       0       0       0       0       0       0       0       0       0
       0       0       0       0       0       0       0       0       0       0
       0       0       0       0       0       0       0       0       0       0
       0       0       0       0       0       0       0       0       0       0
       0       0       0       0       0       0       0       0       0       0
       0       0       0       0       0       0       0       0       0       0
       0       0       0       0       0       0       0       0       0       0
       0       0       0       0       0       0       0       0       0       0
       0       0       0       0       0       0       0       0       0       0
       0       0       0       0       0       0       0       0       0       0
       0       0       0       0       0       0       0       0       0       0
       0       0       0       0       0       0       0       0       0       0
       0       0       0       0       0       0       0       0       0       0
       0       0       0       0       0       0       0       0       0       0
       0       0       0       0       0       0       0       0       0       0
       0       0       0       0       0       0       0       0       0       0
       0       0       0       0       0       0       0       0       0       0
       0       0       0       0       0       0       0       0       0       0
       0       0       0       0       0       0       0       0       0       0
       0       0       0       0       0       0       0       0       0       0
       0       0       0       0       0       0       0       0       0       0
       0       0       0       0       0       0       0       0       0       0
       0       0       0       0       0       0       0       0       0       0
       0       0       0       0       0       0       0       0       0       0
       0       0       0       0       0       0       0       0       0       0
       0       0       0       0       0       0       0       0       0       0
       0       0       0       0       0       0       0       0       0       0
       0       0       0       0       0       0       0       0       0       0
       0       0       0       0       0       0       0       0       0       0
       0       0       0       0       0       0       0       0       0       0
       0       0       0       0       0       0       0       0       0       0
       0       0       0       0       0       0       0       0       0       0
       0       0       0       0       0       0       0       0       0       0
       0       0       0       0       0       0       0       0       0       0
       0       0       0       0       0       0       0       0       0       0
       0       0       0       0       0       0       0       0       0       0
       0       0       0       0       0       0       0       0       0       0
       0       0       0       0       0       0       0       0       0       0
       0       0       0       0       0       0       0       0       0       0
       0       0       0       0       0       0       0       0       0       0
       0       0       0       0       0       0       0       0       0       0
       0       0       0       0       0       0       0       0       0       0
       0       0       0       0       0       0       0       0       0       0
       0       0       0       0       0       0       0       0       0       0
       0       0       0       0       0       0       0       0       0       0
       0       0       0       0       0       0       0       0       0       0
       0       0       0       0       0       0       0       0       0       0
       0       0       0       0       0       0       0       0       0       0
       0       0       0       0       0       0       0       0       0       0
       0       0       0       0       0       0       0       0       0       0
       0       0       0       0       0       0       0       0       0       0
       0       0       0       0       0       0       0       0       0       0
       0       0       0       0       0       0       0       0       0       0
       0       0       0       0       0       0       0       0       0       0
       0       0       0       0       0       0       0       0       0       0
       0       0       0       0       0       0       0       0       0       0
       0       0       0       0       0       0       0       0       0       0
       0       0       0       0       0       0       0       0       0       0
       0       0       0       0       0       0       0       0       0       0
       0       0       0       0       0       0       0       0       0       0
       0       0       0       0       0       0       0       0       0       0
       0       0       0       0       0       0       0       0       0       0
       0       0       0       0       0       0       0       0       0       0
       0       0       0       0       0       0       0       0       0       0
       0       0       0       0       0       0       0       0       0       0
       0       0       0       0       0       0       0       0       0       0
       0       0       0       0       0       0       0       0       0       0
       0       0       0       0       0       0       0       0       0       0
       0       0       0       0       0       0       0       0       0       0
       0       0       0       0       0       0       0       0       0       0
       0       0       0       0       0       0       0       0       0       0
       0       0       0       0       0       0       0       0       0       0
       0       0       0       0       0       0       0       0       0       0
       0       0       0       0       0       0       0       0       0       0
       0       0       0       0       0       0       0       0       0       0
       0       0       0       0       0       0       0       0       0       0
       0       0       0       0       0       0       0       0       0       0
       0       0       0       0       0       0       0       0       0       0
       0       0       0       0       0       0       0       0       0       0
       0       0       0       0       0       0       0       0       0       0
       0       0       0       0       0       0       0       0       0       0
       0       0       0       0       0       0       0       0       0       0
       0       0       0       0       0       0       0       0       0       0
       0       0       0       0       0       0       0       0       0       0
       0       0       0       0       0       0       0       0       0       0
       0       0       0       0       0       0       0       0       0       0
       0       0       0       0       0       0       0       0       0       0
       0       0       0       0       0       0       0       0       0       0
       0       0       0       0       0       0       0       0       0       0
       0       0       0       0       0       0       0       0       0       0
       0       0       0       0       0       0       0       0       0       0
       0       0       0       0       0       0       0       0       0       0
       0       0       0       0       0       0       0       0       0       0
       0       0       0       0       0       0       0       0       0       0
       0       0       0       0       0       0       0       0       0       0
       0       0       0       0       0       0       0       0       0       0
       0       0       0       0       0       0       0       0       0       0
       0       0       0       0       0       0       0       0       0       0
       0       0       0       0       0       0       0       0       0       0
       0       0       0       0       0       0       0       0       0       0
       0       0       0       0       0       0       0       0       0       0
       0       0       0       0       0       0       0       0       0       0
       0       0       0       0       0       0       0       0       0       0
       0       0       0       0       0       0       0       0       0       0
       0       0       0       0       0       0       0       0       0       0
       0       0       0       0       0       0       0       0       0       0
       0       0       0       0       0       0       0       0       0       0
       0       0       0       0       0       0       0       0       0       0
       0       0       0       0       0       0       0       0       0       0
       0       0       0       0       0       0       0       0       0       0
       0       0       0       0       0       0       0       0       0       0
       0       0       0       0       0       0       0       0       0       0
       0       0       0       0       0       0       0       0       0       0
       0       0       0       0       0       0       0       0       0       0
       0       0       0       0       0       0       0       0       0       0
       0       0       0       0       0       0       0       0       0       0
       0       0       0       0       0       0       0       0       0       0
       0       0       0       0       0       0       0       0       0       0
       0       0       0       0       0       0       0       0       0       0
       0       0       0       0       0       0       0       0       0       0
       0       0       0       0       0       0       0       0       0       0
       0       0       0       0       0       0       0       0       0       0
       0       0       0       0       0       0       0       0       0       0
       0       0       0       0       0       0       0       0       0       0
       0       0       0       0       0       0       0       0       0       0
       0       0       0       0       0       0       0       0       0       0
       0       0       0       0       0       0       0       0       0       0
       0       0       0       0       0       0       0       0       0       0
       0       0       0       0       0       0       0       0       0       0
       0       0       0       0       0       0       0       0       0       0
       0       0       0       0       0       0       0       0       0       0
       0       0       0       0       0       0       0       0       0       0
       0       0       0       0       0       0       0       0       0       0
       0       0       0       0       0       0       0       0       0       0
       0       0       0       0       0       0       0       0       0       0
       0       0       0       0       0       0       0       0       0       0
       0       0       0       0       0       0       0       0       0       0
       0       0       0       0       0       0       0       0       0       0
       0       0       0       0       0       0       0       0       0       0
       0       0       0       0       0       0       0       0       0       0
       0       0       0       0       0       0       0       0       0       0
       0       0       0       0       0       0       0       0       0       0
       0       0       0       0       0       0       0       0       0       0
       0       0       0       0       0       0       0       0       0       0
       0       0       0       0       0       0       0       0       0       0
       0       0       0       0       0       0       0       0       0       0
       0       0       0       0       0       0       0       0       0       0
       0       0       0       0       0       0       0       0       0       0
       0       0       0       0       0       0       0       0       0       0
       0       0       0       0       0       0       0       0       0       0
       0       0       0       0       0       0       0       0       0       0
       0       0       0       0       0       0       0       0       0       0
       0       0       0       0       0       0       0       0       0       0
       0       0       0       0       0       0       0       0       0       0
       0       0       0       0       0       0       0       0       0       0
       0       0       0       0       0       0       0       0       0       0
       0       0       0       0       0       0       0       0       0       0
       0       0       0       0       0       0       0       0       0       0
       0       0       0       0       0       0       0       0       0       0
       0       0       0       0       0       0       0       0       0       0
       0       0       0       0       0       0       0       0       0       0
       0       0       0       0       0       0       0       0       0       0
       0       0       0       0       0       0       0       0       0       0
       0       0       0       0       0       0       0       0       0       0
       0       0       0       0       0       0       0       0       0       0
       0       0       0       0       0       0       0       0       0       0
       0       0       0       0       0       0       0       0       0       0
       0       0       0       0       0       0       0       0       0       0
       0       0       0       0       0       0       0       0       0       0
       0       0       0       0       0       0       0       0       0       0
       0       0       0       0       0       0       0       0       0       0
       0       0       0       0       0       0       0       0       0       0
       0       0       0       0       0       0       0       0       0       0
       0       0       0       0       0       0       0       0       0       0
       0       0       0       0       0       0       0       0       0       0
       0       0       0       0       0       0       0       0       0       0
       0       0       0       0       0       0       0       0       0       0
       0       0       0       0       0       0       0       0       0       0
       0       0       0       0       0       0       0       0       0       0
       0       0       0       0       0       0       0       0       0       0
       0       0       0       0       0       0       0       0       0       0
       0       0       0       0       0       0       0       0       0       0
       0       0       0       0       0       0       0       0       0       0
       0       0       0       0       0       0       0       0       0       0
       0       0       0       0       0       0       0       0       0       0
       0       0       0       0       0       0       0       0       0       0
       0       0       0       0       0       0       0       0       0       0
       0       0       0       0       0       0       0       0       0       0
       0       0       0       0       0       0       0       0       0       0
       0       0       0       0       0       0       0       0       0       0
       0       0       0       0       0       0       0       0       0       0
       0       0       0       0       0       0       0       0       0       0
       0       0       0       0       0       0       0       0       0       0
       0       0       0       0       0       0       0       0       0       0
       0       0       0       0       0       0       0       0       0       0
       0       0       0       0       0       0       0       0       0       0
       0       0       0       0       0       0       0       0       0       0
       0       0       0       0       0       0       0       0       0       0
       0       0       0       0       0       0       0       0       0       0
       0       0       0       0       0       0       0       0       0       0
       0       0       0       0       0       0       0       0       0       0
       0       0       0       0       0       0       0       0       0       0
       0       0       0       0       0       0       0       0       0       0
       0       0       0       0       0       0       0       0       0       0
       0       0       0       0       0       0       0       0       0       0
       0       0       0       0       0       0       0       0       0       0
       0       0       0       0       0       0       0       0       0       0
       0       0       0       0       0       0       0       0       0       0
       0       0       0       0       0       0       0       0       0       0
       0       0       0       0       0       0       0       0       0       0
       0       0       0       0       0       0       0       0       0       0
       0       0       0       0       0       0       0       0       0       0
       0       0       0       0       0       0       0       0       0       0
       0       0       0       0       0       0       0       0       0       0
       0       0       0       0       0       0       0       0       0       0
       0       0       0       0       0       0       0       0       0       0
       0       0       0       0       0       0       0       0       0       0
       0       0       0       0       0       0       0       0       0       0
       0       0       0       0       0       0       0       0       0       0
       0       0       0       0       0       0       0       0       0       0
       0       0       0       0       0       0       0       0       0       0
       0       0       0       0       0       0       0       0       0       0
       0       0       0       0       0       0       0       0       0       0
       0       0       0       0       0       0       0       0       0       0
       0       0       0       0       0       0       0       0       0       0
       0       0       0       0       0       0       0       0       0       0
       0       0       0       0       0       0       0       0       0       0
       0       0       0       0       0       0       0       0       0       0
       0       0       0       0       0       0       0       0       0       0
       0       0       0       0       0       0       0       0       0       0
       0       0       0       0       0       0       0       0       0       0
       0       0       0       0       0       0       0       0       0       0
       0       0       0       0       0       0       0       0       0       0
       0       0       0       0       0       0       0       0       0       0
       0       0       0       0       0       0       0       0       0       0
       0       0       0       0       0       0       0       0       0       0
       0       0       0       0       0       0       0       0       0       0
       0       0       0       0       0       0       0       0       0       0
       0       0       0       0       0       0       0       0       0       0
       0       0       0       0       0       0       0       0       0       0
       0       0       0       0       0       0       0       0       0       0
       0       0       0       0       0       0       0       0       0       0
       0       0       0       0       0       0       0       0       0       0
       0       0       0       0       0       0       0       0       0       0
       0       0       0       0       0       0       0       0       0       0
       0       0       0       0       0       0       0       0       0       0
       0       0       0       0       0       0       0       0       0       0
       0       0       0       0       0       0       0       0       0       0
       0       0       0       0       0       0       0       0       0       0
       0       0       0       0       0       0       0       0       0       0
       0       0       0       0       0       0       0       0       0       0
       0       0       0       0       0       0       0       0       0       0
       0       0       0       0       0       0       0       0       0       0
       0       0       0       0       0       0       0       0       0       0
       0       0       0       0       0       0       0       0       0       0
       0       0       0       0       0       0       0       0       0       0
       0       0       0       0       0       0       0       0       0       0
       0       0       0       0       0       0       0       0       0       0
       0       0       0       0       0       0       0       0       0       0
       0       0       0       0       0       0       0       0       0       0
       0       0       0       0       0       0       0       0       0       0
       0       0       0       0       0       0       0       0       0       0
       0       0       0       0       0       0       0       0       0       0
       0       0       0       0       0       0       0       0       0       0
       0       0       0       0       0       0       0       0       0       0
       0       0       0       0       0       0       0       0       0       0
       0       0       0       0       0       0       0       0       0       0
       0       0       0       0       0       0       0       0       0       0
       0       0       0       0       0       0       0       0       0       0
       0       0       0       0       0       0       0       0       0       0
       0       0       0       0       0       0       0       0       0       0
       0       0       0       0       0       0       0       0       0       0
       0       0       0       0       0       0       0       0       0       0
       0       0       0       0       0       0       0       0       0       0
       0       0       0       0       0       0       0       0       0       0
       0       0       0       0       0       0       0       0       0       0
       0       0       0       0       0       0       0       0       0       0
       0       0       0       0       0       0       0       0       0       0
       0       0       0       0       0       0       0       0       0       0
       0       0       0       0       0       0       0       0       0       0
       0       0       0       0       0       0       0       0       0       0
       0       0       0       0       0       0       0       0       0       0
       0       0       0       0       0       0       0       0       0       0
       0       0       0       0       0       0       0       0       0       0
       0       0       0       0       0       0       0       0       0       0
       0       0       0       0       0       0       0       0       0       0
       0       0       0       0       0       0       0       0       0       0
       0       0       0       0       0       0       0       0       0       0
       0       0       0       0       0       0       0       0       0       0
       0       0       0       0       0       0       0       0       0       0
       0       0       0       0       0       0       0       0       0       0
       0       0       0       0       0       0       0       0       0       0
       0       0       0       0       0       0       0       0       0       0
       0       0       0       0       0       0       0       0       0       0
       0       0       0       0       0       0       0       0       0       0
       0       0       0       0       0       0       0       0       0       0
       0       0       0       0       0       0       0       0       0       0
       0       0       0       0       0       0       0       0       0       0
       0       0       0       0       0       0       0       0       0       0
       0       0       0       0       0       0       0       0       0       0
       0       0       0       0       0       0       0       0       0       0
       0       0       0       0       0       0       0       0       0       0
       0       0       0       0       0       0       0       0       0       0
       0       0       0       0       0       0       0       0       0       0
       0       0       0       0       0       0       0       0       0       0
       0       0       0       0       0       0       0       0       0       0
       0       0       0       0       0       0       0       0       0       0
       0       0       0       0       0       0       0       0       0       0
       0       0       0       0       0       0       0       0       0       0
       0       0       0       0       0       0       0       0       0       0
       0       0       0       0       0       0       0       0       0       0
       0       0       0       0       0       0       0       0       0       0
       0       0       0       0       0       0       0       0       0       0
       0       0       0       0       0       0       0       0       0       0
       0       0       0       0       0       0       0       0       0       0
       0       0       0       0       0       0       0       0       0       0
       0       0       0       0       0       0       0       0       0       0
       0       0       0       0       0       0       0       0       0       0
       0       0       0       0       0       0       0       0       0       0
       0       0       0       0       0       0       0       0       0       0
       0       0       0       0       0       0       0       0       0       0
       0       0       0       0       0       0       0       0       0       0
       0       0       0       0       0       0       0       0       0       0
       0       0       0       0       0       0       0       0       0       0
       0       0       0       0       0       0       0       0       0       0
       0       0       0       0       0       0       0       0       0       0
       0       0       0       0       0       0       0       0       0       0
       0       0       0       0       0       0       0       0       0       0
       0       0       0       0       0       0       0       0       0       0
       0       0       0       0       0       0       0       0       0       0
       0       0       0       0       0       0       0       0       0       0
       0       0       0       0       0       0       0       0       0       0
       0       0       0       0       0       0       0       0       0       0
       0       0       0       0       0       0       0       0       0       0
       0       0       0       0       0       0       0       0       0       0
       0       0       0       0       0       0       0       0       0       0
       0       0       0       0       0       0       0       0       0       0
       0       0       0       0       0       0       0       0       0       0
       0       0       0       0       0       0       0       0       0       0
       0       0       0       0       0       0       0       0       0       0
       0       0       0       0       0       0       0       0       0       0
       0       0       0       0       0       0       0       0       0       0
       0       0       0       0       0       0       0       0       0       0
       0       0       0       0       0       0       0       0       0       0
       0       0       0       0       0       0       0       0       0       0
       0       0       0       0       0       0       0       0       0       0
       0       0       0       0       0       0       0       0       0       0
       0       0       0       0       0       0       0       0       0       0
       0       0       0       0       0       0       0       0       0       0
       0       0       0       0       0       0       0       0       0       0
       0       0       0       0       0       0       0       0       0       0
       0       0       0       0       0       0       0       0       0       0
       0       0       0       0       0       0       0       0       0       0
       0       0       0       0       0       0       0       0       0       0
       0       0       0       0       0       0       0       0       0       0
       0       0       0       0       0       0       0       0       0       0
       0       0       0       0       0       0       0       0       0       0
       0       0       0       0       0       0       0       0       0       0
       0       0       0       0       0       0       0       0       0       0
       0       0       0       0       0       0       0       0       0       0
       0       0       0       0       0       0       0       0       0       0
       0       0       0       0       0       0       0       0       0       0
       0       0       0       0       0       0       0       0       0       0
       0       0       0       0       0       0       0       0       0       0
       0       0       0       0       0       0       0       0       0       0
       0       0       0       0       0       0       0       0       0       0
       0       0       0       0       0       0       0       0       0       0
       0       0       0       0       0       0       0       0       0       0
       0       0       0       0       0       0       0       0       0       0
       0       0       0       0       0       0       0       0       0       0
       0       0       0       0       0       0       0       0       0       0
       0       0       0       0       0       0       0       0       0       0
       0       0       0       0       0       0       0       0       0       0
       0       0       0       0       0       0       0       0       0       0
       0       0       0       0       0       0       0       0       0       0
       0       0       0       0       0       0       0       0       0       0
       0       0       0       0       0       0       0       0       0       0
       0       0       0       0       0       0       0       0       0       0
       0       0       0       0       0       0       0       0       0       0
       0       0       0       0       0       0       0       0       0       0
       0       0       0       0       0       0       0       0       0       0
       0       0       0       0       0       0       0       0       0       0
       0       0       0       0       0       0       0       0       0       0
       0       0       0       0       0       0       0       0       0       0
       0       0       0       0       0       0       0       0       0       0
       0       0       0       0       0       0       0       0       0       0
       0       0       0       0       0       0       0       0       0       0
       0       0       0       0       0       0       0       0       0       0
       0       0       0       0       0       0       0       0       0       0
       0       0       0       0       0       0       0       0       0       0
       0       0       0       0       0       0       0       0       0       0
       0       0       0       0       0       0       0       0       0       0
       0       0       0       0       0       0       0       0       0       0
       0       0       0       0       0       0       0       0       0       0
       0       0       0       0       0       0       0       0       0       0
       0       0       0       0       0       0       0       0       0       0
       0       0       0       0       0       0       0       0       0       0
       0       0       0       0       0       0       0       0       0       0
       0       0       0       0       0       0       0       0       0       0
       0       0       0       0       0       0       0       0       0       0
       0       0       0       0       0       0       0       0       0       0
       0       0       0       0       0       0       0       0       0       0
       0       0       0       0       0       0       0       0       0       0
       0       0       0       0       0       0       0       0       0       0
       0       0       0       0       0       0       0       0       0       0
       0       0       0       0       0       0       0       0       0       0
       0       0       0       0       0       0       0       0       0       0
       0       0       0       0       0       0       0       0       0       0
       0       0       0       0       0       0       0       0       0       0
       0       0       0       0       0       0       0       0       0       0
       0       0       0       0       0       0       0       0       0       0
       0       0       0       0       0       0       0       0       0       0
       0       0       0       0       0       0       0       0       0       0
       0       0       0       0       0       0       0       0       0       0
       0       0       0       0       0       0       0       0       0       0
       0       0       0       0       0       0       0       0       0       0
       0       0       0       0       0       0       0       0       0       0
       0       0       0       0       0       0       0       0       0       0
       0       0       0       0       0       0       0       0       0       0
       0       0       0       0       0       0       0       0       0       0
       0       0       0       0       0       0       0       0       0       0
       0       0       0       0       0       0       0       0       0       0
       0       0       0       0       0       0       0       0       0       0
       0       0       0       0       0       0       0       0       0       0
       0       0       0       0       0       0       0       0       0       0
       0       0       0       0       0       0       0       0       0       0
       0       0       0       0       0       0       0       0       0       0
       0       0       0       0       0       0       0       0       0       0
       0       0       0       0       0       0       0       0       0       0
       0       0       0       0       0       0       0       0       0       0
       0       0       0       0       0       0       0       0       0       0
       0       0       0       0       0       0       0       0       0       0
       0       0       0       0       0       0       0       0       0       0
       0       0       0       0       0       0       0       0       0       0
       0       0       0       0       0       0       0       0       0       0
       0       0       0       0       0       0       0       0       0       0
       0       0       0       0       0       0       0       0       0       0
       0       0       0       0       0       0       0       0       0       0
       0       0       0       0       0       0       0       0       0       0
       0       0       0       0       0       0       0       0       0       0
       0       0       0       0       0       0       0       0       0       0
       0       0       0       0       0       0       0       0       0       0
       0       0       0       0       0       0       0       0       0       0
       0       0       0       0       0       0       0       0       0       0
       0       0       0       0       0       0       0       0       0       0
       0       0       0       0       0       0       0       0       0       0
       0       0       0       0       0       0       0       0       0       0
       0       0       0       0       0       0       0       0       0       0
       0       0       0       0       0       0       0       0       0       0
       0       0       0       0       0       0       0       0       0       0
       0       0       0       0       0       0       0       0       0       0
       0       0       0       0       0       0       0       0       0       0
       0       0       0       0       0       0       0       0       0       0
       0       0       0       0       0       0       0       0       0       0
       0       0       0       0       0       0       0       0       0       0
       0       0       0       0       0       0       0       0       0       0
       0       0       0       0       0       0       0       0       0       0
       0       0       0       0       0       0       0       0       0       0
       0       0       0       0       0       0       0       0       0       0
       0       0       0       0       0       0       0       0       0       0
       0       0       0       0       0       0       0       0       0       0
       0       0       0       0       0       0       0       0       0       0
       0       0       0       0       0       0       0       0       0       0
       0       0       0       0       0       0       0       0       0       0
       0       0       0       0       0       0       0       0       0       0
       0       0       0       0       0       0       0       0       0       0
       0       0       0       0       0       0       0       0       0       0
       0       0       0       0       0       0       0       0       0       0
       0       0       0       0       0       0       0       0       0       0
       0       0       0       0       0       0       0       0       0       0
       0       0       0       0       0       0       0       0       0       0
       0       0       0       0       0       0       0       0       0       0
       0       0       0       0       0       0       0       0       0       0
       0       0       0       0       0       0       0       0       0       0
       0       0       0       0       0       0       0       0       0       0
       0       0       0       0       0       0       0       0       0       0
       0       0       0       0       0       0       0       0       0       0
       0       0       0       0       0       0       0       0       0       0
       0       0       0       0       0       0       0       0       0       0
       0       0       0       0       0       0       0       0       0       0
       0       0       0       0       0       0       0       0       0       0
       0       0       0       0       0       0       0       0       0       0
       0       0       0       0       0       0       0       0       0       0
       0       0       0       0       0       0       0       0       0       0
       0       0       0       0       0       0       0       0       0       0
       0       0       0       0       0       0       0       0       0       0
       0       0       0       0       0       0       0       0       0       0
       0       0       0       0       0       0       0       0       0       0
       0       0       0       0       0       0       0       0       0       0
       0       0       0       0       0       0       0       0       0       0
       0       0       0       0       0       0       0       0       0       0
       0       0       0       0       0       0       0       0       0       0
       0       0       0       0       0       0       0       0       0       0
       0       0       0       0       0       0       0       0       0       0
       0       0       0       0       0       0       0       0       0       0
       0       0       0       0       0       0       0       0       0       0
       0       0       0       0       0       0       0       0       0       0
       0       0       0       0       0       0       0       0       0       0
       0       0       0       0       0       0       0       0       0       0
       0       0       0       0       0       0       0       0       0       0
       0       0       0       0       0       0       0       0       0       0
       0       0       0       0       0       0       0       0       0       0
       0       0       0       0       0       0       0       0       0       0
       0       0       0       0       0       0       0       0       0       0
       0       0       0       0       0       0       0       0       0       0
       0       0       0       0       0       0       0       0       0       0
       0       0       0       0       0       0       0       0       0       0
       0       0       0       0       0       0       0       0       0       0
       0       0       0       0       0       0       0       0       0       0
       0       0       0       0       0       0       0       0       0       0
       0       0       0       0       0       0       0       0       0       0
       0       0       0       0       0       0       0       0       0       0
       0       0       0       0       0       0       0       0       0       0
       0       0       0       0       0       0       0       0       0       0
       0       0       0       0       0       0       0       0       0       0
       0       0       0       0       0       0       0       0       0       0
       0       0       0       0       0       0       0       0       0       0
       0       0       0       0       0       0       0       0       0       0
       0       0       0       0       0       0       0       0       0       0
       0       0       0       0       0       0       0       0       0       0
       0       0       0       0       0       0       0       0       0       0
       0       0       0       0       0       0       0       0       0       0
       0       0       0       0       0       0       0       0       0       0
       0       0       0       0       0       0       0       0       0       0
       0       0       0       0       0       0       0       0       0       0
       0       0       0       0       0       0       0       0       0       0
       0       0       0       0       0       0       0       0       0       0
       0       0       0       0       0       0       0       0       0       0
       0       0       0       0       0       0       0       0       0       0
       0       0       0       0       0       0       0       0       0       0
       0       0       0       0       0       0       0       0       0       0
       0       0       0       0       0       0       0       0       0       0
       0       0       0       0       0       0       0       0       0       0
       0       0       0       0       0       0       0       0       0       0
       0       0       0       0       0       0       0       0       0       0
       0       0       0       0       0       0       0       0       0       0
       0       0       0       0       0       0       0       0       0       0
       0       0       0       0       0       0       0       0       0       0
       0       0       0       0       0       0       0       0       0       0
       0       0       0       0       0       0       0       0       0       0
       0       0       0       0       0       0       0       0       0       0
       0       0       0       0       0       0       0       0       0       0
       0       0       0       0       0       0       0       0       0       0
       0       0       0       0       0       0       0       0       0       0
       0       0       0       0       0       0       0       0       0       0
       0       0       0       0       0       0       0       0       0       0
       0       0       0       0       0       0       0       0       0       0
       0       0       0       0       0       0       0       0       0       0
       0       0       0       0       0       0       0       0       0       0
       0       0       0       0       0       0       0       0       0       0
       0       0       0       0       0       0       0       0       0       0
       0       0       0       0       0       0       0       0       0       0
       0       0       0       0       0       0       0       0       0       0
       0       0       0       0       0       0       0       0       0       0
       0       0       0       0       0       0       0       0       0       0
       0       0       0       0       0       0       0       0       0       0
       0       0       0       0       0       0       0       0       0       0
       0       0       0       0       0       0       0       0       0       0
       0       0       0       0       0       0       0       0       0       0
       0       0       0       0       0       0       0       0       0       0
       0       0       0       0       0       0       0       0       0       0
       0       0       0       0       0       0       0       0       0       0
       0       0       0       0       0       0       0       0       0       0
       0       0       0       0       0       0       0       0       0       0
       0       0       0       0       0       0       0       0       0       0
       0       0       0       0       0       0       0       0       0       0
       0       0       0       0       0       0       0       0       0       0
       0       0       0       0       0       0       0       0       0       0
       0       0       0       0       0       0       0       0       0       0
       0       0       0       0       0       0       0       0       0       0
       0       0       0       0       0       0       0       0       0       0
       0       0       0       0       0       0       0       0       0       0
       0       0       0       0       0       0       0       0       0       0
       0       0       0       0       0       0       0       0       0       0
       0       0       0       0       0       0       0       0       0       0
       0       0       0       0       0       0       0       0       0       0
       0       0       0       0       0       0       0       0       0       0
       0       0       0       0       0       0       0       0       0       0
       0       0       0       0       0       0       0       0       0       0
       0       0       0       0       0       0       0       0       0       0
       0       0       0       0       0       0       0       0       0       0
       0       0       0       0       0       0       0       0       0       0
       0       0       0       0       0       0       0       0       0       0
       0       0       0       0       0       0       0       0       0       0
       0       0       0       0       0       0       0       0       0       0
       0       0       0       0       0       0       0       0       0       0
       0       0       0       0       0       0       0       0       0       0
       0       0       0       0       0       0       0       0       0       0
       0       0       0       0       0       0       0       0       0       0
       0       0       0       0       0       0       0       0       0       0
       0       0       0       0       0       0       0       0       0       0
       0       0       0       0       0       0       0       0       0       0
       0       0       0       0       0       0       0       0       0       0
       0       0       0       0       0       0       0       0       0       0
       0       0       0       0       0       0       0       0       0       0
       0       0       0       0       0       0       0       0       0       0
       0       0       0       0       0       0       0       0       0       0
       0       0       0       0       0       0       0       0       0       0
       0       0       0       0       0       0       0       0       0       0
       0       0       0       0       0       0       0       0       0       0
       0       0       0       0       0       0       0       0       0       0
       0       0       0       0       0       0       0       0       0       0
       0       0       0       0       0       0       0       0       0       0
       0       0       0       0       0       0       0       0       0       0
       0       0       0       0       0       0       0       0       0       0
       0       0       0       0       0       0       0       0       0       0
       0       0       0       0       0       0       0       0       0       0
       0       0       0       0       0       0       0       0       0       0
       0       0       0       0       0       0       0       0       0       0
       0       0       0       0       0       0       0       0       0       0
       0       0       0       0       0       0       0       0       0       0
       0       0       0       0       0       0       0       0       0       0
       0       0       0       0       0       0       0       0       0       0
       0       0       0       0       0       0       0       0       0       0
       0       0       0       0       0       0       0       0       0       0
       0       0       0       0       0       0       0       0       0       0
       0       0       0       0       0       0       0       0       0       0
       0       0       0       0       0       0       0       0       0       0
       0       0       0       0       0       0       0       0       0       0
       0       0       0       0       0       0       0       0       0       0
       0       0       0       0       0       0       0       0       0       0
       0       0       0       0       0       0       0       0       0       0
       0       0       0       0       0       0       0       0       0       0
       0       0       0       0       0       0       0       0       0       0
       0       0       0       0       0       0       0       0       0       0
       0       0       0       0       0       0       0       0       0       0
       0       0       0       0       0       0       0       0       0       0
       0       0       0       0       0       0       0       0       0       0
       0       0       0       0       0       0       0       0       0       0
       0       0       0       0       0       0       0       0       0       0
       0       0       0       0       0       0       0       0       0       0
       0       0       0       0       0       0       0       0       0       0
       0       0       0       0       0       0       0       0       0       0
       0       0       0       0       0       0       0       0       0       0
       0       0       0       0       0       0       0       0       0       0
       0       0       0       0       0       0       0       0       0       0
       0       0       0       0       0       0       0       0       0       0
       0       0       0       0       0       0       0       0       0       0
       0       0       0       0       0       0       0       0       0       0
       0       0       0       0       0       0       0       0       0       0
       0       0       0       0       0       0       0       0       0       0
       0       0       0       0       0       0       0       0       0       0
       0       0       0       0       0       0       0       0       0       0
       0       0       0       0       0       0       0       0       0       0
       0       0       0       0       0       0       0       0       0       0
       0       0       0       0       0       0       0       0       0       0
       0       0       0       0       0       0       0       0       0       0
       0       0       0       0       0       0       0       0       0       0
       0       0       0       0       0       0       0       0       0       0
       0       0       0       0       0       0       0       0       0       0
       0       0       0       0       0       0       0       0       0       0
       0       0       0       0       0       0       0       0       0       0
       0       0       0       0       0       0       0       0       0       0
       0       0       0       0       0       0       0       0       0       0
       0       0       0       0       0       0       0       0       0       0
       0       0       0       0       0       0       0       0       0       0
       0       0       0       0       0       0       0       0       0       0
       0       0       0       0       0       0       0       0       0       0
       0       0       0       0       0       0       0       0       0       0
       0       0       0       0       0       0       0       0       0       0
       0       0       0       0       0       0       0       0       0       0
       0       0       0       0       0       0       0       0       0       0
       0       0       0       0       0       0       0       0       0       0
       0       0       0       0       0       0       0       0       0       0
       0       0       0       0       0       0       0       0       0       0
       0       0       0       0       0       0       0       0       0       0
       0       0       0       0       0       0       0       0       0       0
       0       0       0       0       0       0       0       0       0       0
       0       0       0       0       0       0       0       0       0       0
       0       0       0       0       0       0       0       0       0       0
       0       0       0       0       0       0       0       0       0       0
       0       0       0       0       0       0       0       0       0       0
       0       0       0       0       0       0       0       0       0       0
       0       0       0       0       0       0       0       0       0       0
       0       0       0       0       0       0       0       0       0       0
       0       0       0       0       0       0       0       0       0       0
       0       0       0       0       0       0       0       0       0       0
       0       0       0       0       0       0       0       0       0       0
       0       0       0       0       0       0       0       0       0       0
       0       0       0       0       0       0       0       0       0       0
       0       0       0       0       0       0       0       0       0       0
       0       0       0       0       0       0       0       0       0       0
       0       0       0       0       0       0       0       0       0       0
       0       0       0       0       0       0       0       0       0       0
       0       0       0       0       0       0       0       0       0       0
       0       0       0       0       0       0       0       0       0       0
       0       0       0       0       0       0       0       0       0       0
       0       0       0       0       0       0       0       0       0       0
       0       0       0       0       0       0       0       0       0       0
       0       0       0       0       0       0       0       0       0       0
       0       0       0       0       0       0       0       0       0       0
       0       0       0       0       0       0       0       0       0       0
       0       0       0       0       0       0       0       0       0       0
       0       0       0       0       0       0       0       0       0       0
       0       0       0       0       0       0       0       0       0       0
       0       0       0       0       0       0       0       0       0       0
       0       0       0       0       0       0       0       0       0       0
       0       0       0       0       0       0       0       0       0       0
       0       0       0       0       0       0       0       0       0       0
       0       0       0       0       0       0       0       0       0       0
       0       0       0       0       0       0       0       0       0       0
       0       0       0       0       0       0       0       0       0       0
       0       0       0       0       0       0       0       0       0       0
       0       0       0       0       0       0       0       0       0       0
       0       0       0       0       0       0       0       0       0       0
       0       0       0       0       0       0       0       0       0       0
       0       0       0       0       0       0       0       0       0       0
       0       0       0       0       0       0       0       0       0       0
       0       0       0       0       0       0       0       0       0       0
       0       0       0       0       0       0       0       0       0       0
       0       0       0       0       0       0       0       0       0       0
       0       0       0       0       0       0       0       0       0       0
       0       0       0       0       0       0       0       0       0       0
       0       0       0       0       0       0       0       0       0       0
       0       0       0       0       0       0       0       0       0       0
       0       0       0       0       0       0       0       0       0       0
       0       0       0       0       0       0       0       0       0       0
       0       0       0       0       0       0       0       0       0       0
       0       0       0       0       0       0       0       0       0       0
       0       0       0       0       0       0       0       0       0       0
       0       0       0       0       0       0       0       0       0       0
       0       0       0       0       0       0       0       0       0       0
       0       0       0       0       0       0       0       0       0       0
       0       0       0       0       0       0       0       0       0       0
       0       0       0       0       0       0       0       0       0       0
       0       0       0       0       0       0       0       0       0       0
       0       0       0       0       0       0       0       0       0       0
       0       0       0       0       0       0       0       0       0       0
       0       0       0       0       0       0       0       0       0       0
       0       0       0       0       0       0       0       0       0       0
       0       0       0       0       0       0       0       0       0       0
       0       0       0       0       0       0       0       0       0       0
       0       0       0       0       0       0       0       0       0       0
       0       0       0       0       0       0       0       0       0       0
       0       0       0       0       0       0       0       0       0       0
       0       0       0       0       0       0       0       0       0       0
       0       0       0       0       0       0       0       0       0       0
       0       0       0       0       0       0       0       0       0       0
       0       0       0       0       0       0       0       0       0       0
       0       0       0       0       0       0       0       0       0       0
       0       0       0       0       0       0       0       0       0       0
       0       0       0       0       0       0       0       0       0       0
       0       0       0       0       0       0       0       0       0       0
       0       0       0       0       0       0       0       0       0       0
       0       0       0       0       0       0       0       0       0       0
       0       0       0       0       0       0       0       0       0       0
       0       0       0       0       0       0       0       0       0       0
       0       0       0       0       0       0       0       0       0       0
       0       0       0       0       0       0       0       0       0       0
       0       0       0       0       0       0       0       0       0       0
       0       0       0       0       0       0       0       0       0       0
       0       0       0       0       0       0       0       0       0       0
       0       0       0       0       0       0       0       0       0       0
       0       0       0       0       0       0       0       0       0       0
       0       0       0       0       0       0       0       0       0       0
       0       0       0       0       0       0       0       0       0       0
       0       0       0       0       0       0       0       0       0       0
       0       0       0       0       0       0       0       0       0       0
       0       0       0       0       0       0       0       0       0       0
       0       0       0       0       0       0       0       0       0       0
       0       0       0       0       0       0       0       0       0       0
       0       0       0       0       0       0       0       0       0       0
       0       0       0       0       0       0       0       0       0       0
       0       0       0       0       0       0       0       0       0       0
       0       0       0       0       0       0       0       0       0       0
       0       0       0       0       0       0       0       0       0       0
       0       0       0       0       0       0       0       0       0       0
       0       0       0       0       0       0       0       0       0       0
       0       0       0       0       0       0       0       0       0       0
       0       0       0       0       0       0       0       0       0       0
       0       0       0       0       0       0       0       0       0       0
       0       0       0       0       0       0       0       0       0       0
       0       0       0       0       0       0       0       0       0       0
       0       0       0       0       0       0       0       0       0       0
       0       0       0       0       0       0       0       0       0       0
       0       0       0       0       0       0       0       0       0       0
       0       0       0       0       0       0       0       0       0       0
       0       0       0       0       0       0       0       0       0       0
       0       0       0       0       0       0       0       0       0       0
       0       0       0       0       0       0       0       0       0       0
       0       0       0       0       0       0       0       0       0       0
       0       0       0       0       0       0       0       0       0       0
       0       0       0       0       0       0       0       0       0       0
       0       0       0       0       0       0       0       0       0       0
       0       0       0       0       0       0       0       0       0       0
       0       0       0       0       0       0       0       0       0       0
       0       0       0       0       0       0       0       0       0       0
       0       0       0       0       0       0       0       0       0       0
       0       0       0       0       0       0       0       0       0       0
       0       0       0       0       0       0       0       0       0       0
       0       0       0       0       0       0       0       0       0       0
       0       0       0       0       0       0       0       0       0       0
       0       0       0       0       0       0       0       0       0       0
       0       0       0       0       0       0       0       0       0       0
       0       0       0       0       0       0       0       0       0       0
       0       0       0       0       0       0       0       0       0       0
       0       0       0       0       0       0       0       0       0       0
       0       0       0       0       0       0       0       0       0       0
       0       0       0       0       0       0       0       0       0       0
       0       0       0       0       0       0       0       0       0       0
       0       0       0       0       0       0       0       0       0       0
       0       0       0       0       0       0       0       0       0       0
       0       0       0       0       0       0       0       0       0       0
       0       0       0       0       0       0       0       0       0       0
       0       0       0       0       0       0       0       0       0       0
       0       0       0       0       0       0       0       0       0       0
       0       0       0       0       0       0       0       0       0       0
       0       0       0       0       0       0       0       0       0       0
       0       0       0       0       0       0       0       0       0       0
       0       0       0       0       0       0       0       0       0       0
       0       0       0       0       0       0       0       0       0       0
       0       0       0       0       0       0       0       0       0       0
       0       0       0       0       0       0       0       0       0       0
       0       0       0       0       0       0       0       0       0       0
       0       0       0       0       0       0       0       0       0       0
       0       0       0       0       0       0       0       0       0       0
       0       0       0       0       0       0       0       0       0       0
       0       0       0       0       0       0       0       0       0       0
       0       0       0       0       0       0       0       0       0       0
       0       0       0       0       0       0       0       0       0       0
       0       0       0       0       0       0       0       0       0       0
       0       0       0       0       0       0       0       0       0       0
       0       0       0       0       0       0       0       0       0       0
       0       0       0       0       0       0       0       0       0       0
       0       0       0       0       0       0       0       0       0       0
       0       0       0       0       0       0       0       0       0       0
       0       0       0       0       0       0       0       0       0       0
       0       0       0       0       0       0       0       0       0       0
       0       0       0       0       0       0       0       0       0       0
       0       0       0       0       0       0       0       0       0       0
       0       0       0       0       0       0       0       0       0       0
       0       0       0       0       0       0       0       0       0       0
       0       0       0       0       0       0       0       0       0       0
       0       0       0       0       0       0       0       0       0       0
       0       0       0       0       0       0       0       0       0       0
       0       0       0       0       0       0       0       0       0       0
       0       0       0       0       0       0       0       0       0       0
       0       0       0       0       0       0       0       0       0       0
       0       0       0       0       0       0       0       0       0       0
       0       0       0       0       0       0       0       0       0       0
       0       0       0       0       0       0       0       0       0       0
       0       0       0       0       0       0       0       0       0       0
       0       0       0       0       0       0       0       0       0       0
       0       0       0       0       0       0       0       0       0       0
       0       0       0       0       0       0       0       0       0       0
       0       0       0       0       0       0       0       0       0       0
       0       0       0       0       0       0       0       0       0       0
       0       0       0       0       0       0       0       0       0       0
       0       0       0       0       0       0       0       0       0       0
       0       0       0       0       0       0       0       0       0       0
       0       0       0       0       0       0       0       0       0       0
       0       0       0       0       0       0       0       0       0       0
       0       0       0       0       0       0       0       0       0       0
       0       0       0       0       0       0       0       0       0       0
       0       0       0       0       0       0       0       0       0       0
       0       0       0       0       0       0       0       0       0       0
       0       0       0       0       0       0       0       0       0       0
       0       0       0       0       0       0       0       0       0       0
       0       0       0       0       0       0       0       0       0       0
       0       0       0       0       0       0       0       0       0       0
       0       0       0       0       0       0       0       0       0       0
       0       0       0       0       0       0       0       0       0       0
       0       0       0       0       0       0       0       0       0       0
       0       0       0       0       0       0       0       0       0       0
       0       0       0       0       0       0       0       0       0       0
       0       0       0       0       0       0       0       0       0       0
       0       0       0       0       0       0       0       0       0       0
       0       0       0       0       0       0       0       0       0       0
       0       0       0       0       0       0       0       0       0       0
       0       0       0       0       0       0       0       0       0       0
       0       0       0       0       0       0       0       0       0       0
       0       0       0       0       0       0       0       0       0       0
       0       0       0       0       0       0       0       0       0       0
       0       0       0       0       0       0       0       0       0       0
       0       0       0       0       0       0       0       0       0       0
       0       0       0       0       0       0       0       0       0       0
       0       0       0       0       0       0       0       0       0       0
       0       0       0       0       0       0       0       0       0       0
       0       0       0       0       0       0       0       0       0       0
       0       0       0       0       0       0       0       0       0       0
       0       0       0       0       0       0       0       0       0       0
       0       0       0       0       0       0       0       0       0       0
       0       0       0       0       0       0       0       0       0       0
       0       0       0       0       0       0       0       0       0       0
       0       0       0       0       0       0       0       0       0       0
       0       0       0       0       0       0       0       0       0       0
       0       0       0       0       0       0       0       0       0       0
       0       0       0       0       0       0       0       0       0       0
       0       0       0       0       0       0       0       0       0       0
       0       0       0       0       0       0       0       0       0       0
       0       0       0       0       0       0       0       0       0       0
       0       0       0       0       0       0       0       0       0       0
       0       0       0       0       0       0       0       0       0       0
       0       0       0       0       0       0       0       0       0       0
       0       0       0       0       0       0       0       0       0       0
       0       0       0       0       0       0       0       0       0       0
       0       0       0       0       0       0       0       0       0       0
       0       0       0       0       0       0       0       0       0       0
       0       0       0       0       0       0       0       0       0       0
       0       0       0       0       0       0       0       0       0       0
       0       0       0       0       0       0       0       0       0       0
       0       0       0       0       0       0       0       0       0       0
       0       0       0       0       0       0       0       0       0       0
       0       0       0       0       0       0       0       0       0       0
       0       0       0       0       0       0       0       0       0       0
       0       0       0       0       0       0       0       0       0       0
       0       0       0       0       0       0       0       0       0       0
       0       0       0       0       0       0       0       0       0       0
       0       0       0       0       0       0       0       0       0       0
       0       0       0       0       0       0       0       0       0       0
       0       0       0       0       0       0       0       0       0       0
       0       0       0       0       0       0       0       0       0       0
       0       0       0       0       0       0       0       0       0       0
       0       0       0       0       0       0       0       0       0       0
       0       0       0       0       0       0       0       0       0       0
       0       0       0       0       0       0       0       0       0       0
       0       0       0       0       0       0       0       0       0       0
       0       0       0       0       0       0       0       0       0       0
       0       0       0       0       0       0       0       0       0       0
       0       0       0       0       0       0       0       0       0       0
       0       0       0       0       0       0       0       0       0       0
       0       0       0       0       0       0       0       0       0       0
       0       0       0       0       0       0       0       0       0       0
       0       0       0       0       0       0       0       0       0       0
       0       0       0       0       0       0       0       0       0       0
       0       0       0       0       0       0       0       0       0       0
       0       0       0       0       0       0       0       0       0       0
       0       0       0       0       0       0       0       0       0       0
       0       0       0       0       0       0       0       0       0       0
       0       0       0       0       0       0       0       0       0       0
       0       0       0       0       0       0       0       0       0       0
       0       0       0       0       0       0       0       0       0       0
       0       0       0       0       0       0       0       0       0       0
       0       0       0       0       0       0       0       0       0       0
       0       0       0       0       0       0       0       0       0       0
       0       0       0       0       0       0       0       0       0       0
       0       0       0       0       0       0       0       0       0       0
       0       0       0       0       0       0       0       0       0       0
       0       0       0       0       0       0       0       0       0       0
       0       0       0       0       0       0       0       0       0       0
       0       0       0       0       0       0       0       0       0       0
       0       0       0       0       0       0       0       0       0       0
       0       0       0       0       0       0       0       0       0       0
       0       0       0       0       0       0       0       0       0       0
       0       0       0       0       0       0       0       0       0       0
       0       0       0       0       0       0       0       0       0       0
       0       0       0       0       0       0       0       0       0       0
       0       0       0       0       0       0       0       0       0       0
       0       0       0       0       0       0       0       0       0       0
       0       0       0       0       0       0       0       0       0       0
       0       0       0       0       0       0       0       0       0       0
       0       0       0       0       0       0       0       0       0       0
       0       0       0       0       0       0       0       0       0       0
       0       0       0       0       0       0       0       0       0       0
       0       0       0       0       0       0       0       0       0       0
       0       0       0       0       0       0       0       0       0       0
       0       0       0       0       0       0       0       0       0       0
       0       0       0       0       0       0       0       0       0       0
       0       0       0       0       0       0       0       0       0       0
       0       0       0       0       0       0       0       0       0       0
       0       0       0       0       0       0       0       0       0       0
       0       0       0       0       0       0       0       0       0       0
       0       0       0       0       0       0       0       0       0       0
       0       0       0       0       0       0       0       0       0       0
       0       0       0       0       0       0       0       0       0       0
       0       0       0       0       0       0       0       0       0       0
       0       0       0       0       0       0       0       0       0       0
       0       0       0       0       0       0       0       0       0       0
       0       0       0       0       0       0       0       0       0       0
       0       0       0       0       0       0       0       0       0       0
       0       0       0       0       0       0       0       0       0       0
       0       0       0       0       0       0       0       0       0       0
       0       0       0       0       0       0       0       0       0       0
       0       0       0       0       0       0       0       0       0       0
       0       0       0       0       0       0       0       0       0       0
       0       0       0       0       0       0       0       0       0       0
       0       0       0       0       0       0       0       0       0       0
       0       0       0       0       0       0       0       0       0       0
       0       0       0       0       0       0       0       0       0       0
       0       0       0       0       0       0       0       0       0       0
       0       0       0       0       0       0       0       0       0       0
       0       0       0       0       0       0       0       0       0       0
       0       0       0       0       0       0       0       0       0       0
       0       0       0       0       0       0       0       0       0       0
       0       0       0       0       0       0       0       0       0       0
       0       0       0       0       0       0       0       0       0       0
       0       0       0       0       0       0       0       0       0       0
       0       0       0       0       0       0       0       0       0       0
       0       0       0       0       0       0       0       0       0       0
       0       0       0       0       0       0       0       0       0       0
       0       0       0       0       0       0       0       0       0       0
       0       0       0       0       0       0       0       0       0       0
       0       0       0       0       0       0       0       0       0       0
       0       0       0       0       0       0       0       0       0       0
       0       0       0       0       0       0       0       0       0       0
       0       0       0       0       0       0       0       0       0       0
       0       0       0       0       0       0       0       0       0       0
       0       0       0       0       0       0       0       0       0       0
       0       0       0       0       0       0       0       0       0       0
       0       0       0       0       0       0       0       0       0       0
       0       0       0       0       0       0       0       0       0       0
       0       0       0       0       0       0       0       0       0       0
       0       0       0       0       0       0       0       0       0       0
       0       0       0       0       0       0       0       0       0       0
       0       0       0       0       0       0       0       0       0       0
       0       0       0       0       0       0       0       0       0       0
       0       0       0       0       0       0       0       0       0       0
       0       0       0       0       0       0       0       0       0       0
       0       0       0       0       0       0       0       0       0       0
       0       0       0       0       0       0       0       0       0       0
       0       0       0       0       0       0       0       0       0       0
       0       0       0       0       0       0       0       0       0       0
       0       0       0       0       0       0       0       0       0       0
       0       0       0       0       0       0       0       0       0       0
       0       0       0       0       0       0       0       0       0       0
       0       0       0       0       0       0       0       0       0       0
       0       0       0       0       0       0       0       0       0       0
       0       0       0       0       0       0       0       0       0       0
       0       0       0       0       0       0       0       0       0       0
       0       0       0       0       0       0       0       0       0       0
       0       0       0       0       0       0       0       0       0       0
       0       0       0       0       0       0       0       0       0       0
       0       0       0       0       0       0       0       0       0       0
       0       0       0       0       0       0       0       0       0       0
       0       0       0       0       0       0       0       0       0       0
       0       0       0       0       0       0       0       0       0       0
       0       0       0       0       0       0       0       0       0       0
       0       0       0       0       0       0       0       0       0       0
       0       0       0       0       0       0       0       0       0       0
       0       0       0       0       0       0       0       0       0       0
       0       0       0       0       0       0       0       0       0       0
       0       0       0       0       0       0       0       0       0       0
       0       0       0       0       0       0       0       0       0       0
       0       0       0       0       0       0       0       0       0       0
       0       0       0       0       0       0       0       0       0       0
       0       0       0       0       0       0       0       0       0       0
       0       0       0       0       0       0       0       0       0       0
       0       0       0       0       0       0       0       0       0       0
       0       0       0       0       0       0       0       0       0       0
       0       0       0       0       0       0       0       0       0       0
       0       0       0       0       0       0       0       0       0       0
       0       0       0       0       0       0       0       0       0       0
       0       0       0       0       0       0       0       0       0       0
       0       0       0       0       0       0       0       0       0       0
       0       0       0       0       0       0       0       0       0       0
       0       0       0       0       0       0       0       0       0       0
       0       0       0       0       0       0       0       0       0       0
       0       0       0       0       0       0       0       0       0       0
       0       0       0       0       0       0       0       0       0       0
       0       0       0       0       0       0       0       0       0       0
       0       0       0       0       0       0       0       0       0       0
       0       0       0       0       0       0       0       0       0       0
       0       0       0       0       0       0       0       0       0       0
       0       0       0       0       0       0       0       0       0       0
       0       0       0       0       0       0       0       0       0       0
       0       0       0       0       0       0       0       0       0       0
       0       0       0       0       0       0       0       0       0       0
       0       0       0       0       0       0       0       0       0       0
       0       0       0       0       0       0       0       0       0       0
       0       0       0       0       0       0       0       0       0       0
       0       0       0       0       0       0       0       0       0       0
       0       0       0       0       0       0       0       0       0       0
       0       0       0       0       0       0       0       0       0       0
       0       0       0       0       0       0       0       0       0       0
       0       0       0       0       0       0       0       0       0       0
       0       0       0       0       0       0       0       0       0       0
       0       0       0       0       0       0       0       0       0       0
       0       0       0       0       0       0       0       0       0       0
       0       0       0       0       0       0       0       0       0       0
       0       0       0       0       0       0       0       0       0       0
       0       0       0       0       0       0       0       0       0       0
       0       0       0       0       0       0       0       0       0       0
       0       0       0       0       0       0       0       0       0       0
       0       0       0       0       0       0       0       0       0       0
       0       0       0       0       0       0       0       0       0       0
       0       0       0       0       0       0       0       0       0       0
       0       0       0       0       0       0       0       0       0       0
       0       0       0       0       0       0       0       0       0       0
       0       0       0       0       0       0       0       0       0       0
       0       0       0       0       0       0       0       0       0       0
       0       0       0       0       0       0       0       0       0       0
       0       0       0       0       0       0       0       0       0       0
       0       0       0       0       0       0       0       0       0       0
       0       0       0       0       0       0       0       0       0       0
       0       0       0       0       0       0       0       0       0       0
       0       0       0       0       0       0       0       0       0       0
       0       0       0       0       0       0       0       0       0       0
       0       0       0       0       0       0       0       0       0       0
       0       0       0       0       0       0       0       0       0       0
       0       0       0       0       0       0       0       0       0       0
       0       0       0       0       0       0       0       0       0       0
       0       0       0       0       0       0       0       0       0       0
       0       0       0       0       0       0       0       0       0       0
       0       0       0       0       0       0       0       0       0       0
       0       0       0       0       0       0       0       0       0       0
       0       0       0       0       0       0       0       0       0       0
       0       0       0       0       0       0       0       0       0       0
       0       0       0       0       0       0       0       0       0       0
       0       0       0       0       0       0       0       0       0       0
       0       0       0       0       0       0       0       0       0       0
       0       0       0       0       0       0       0       0       0       0
       0       0       0       0       0       0       0       0       0       0
       0       0       0       0       0       0       0       0       0       0
       0       0       0       0       0       0       0       0       0       0
       0       0       0       0       0       0       0       0       0       0
       0       0       0       0       0       0       0       0       0       0
       0       0       0       0       0       0       0       0       0       0
       0       0       0       0       0       0       0       0       0       0
       0       0       0       0       0       0       0       0       0       0
       0       0       0       0       0       0       0       0       0       0
       0       0       0       0       0       0       0       0       0       0
       0       0       0       0       0       0       0       0       0       0
       0       0       0       0       0       0       0       0       0       0
       0       0       0       0       0       0       0       0       0       0
       0       0       0       0       0       0       0       0       0       0
       0       0       0       0       0       0       0       0       0       0
       0       0       0       0       0       0       0       0       0       0
       0       0       0       0       0       0       0       0       0       0
       0       0       0       0       0       0       0       0       0       0
       0       0       0       0       0       0       0       0       0       0
       0       0       0       0       0       0       0       0       0       0
       0       0       0       0       0       0       0       0       0       0
       0       0       0       0       0       0       0       0       0       0
       0       0       0       0       0       0       0       0       0       0
       0       0       0       0       0       0       0       0       0       0
       0       0       0       0       0       0       0       0       0       0
       0       0       0       0       0       0       0       0       0       0
       0       0       0       0       0       0       0       0       0       0
       0       0       0       0       0       0       0       0       0       0
       0       0       0       0       0       0       0       0       0       0
       0       0       0       0       0       0       0       0       0       0
       0       0       0       0       0       0       0       0       0       0
       0       0       0       0       0       0       0       0       0       0
       0       0       0       0       0       0       0       0       0       0
       0       0       0       0       0       0       0       0       0       0
       0       0       0       0       0       0       0       0       0       0
       0       0       0       0       0       0       0       0       0       0
       0       0       0       0       0       0       0       0       0       0
       0       0       0       0       0       0       0       0       0       0
       0       0       0       0       0       0       0       0       0       0
       0       0       0       0       0       0       0       0       0       0
       0       0       0       0       0       0       0       0       0       0
       0       0       0       0       0       0       0       0       0       0
       0       0       0       0       0       0       0       0       0       0
       0       0       0       0       0       0       0       0       0       0
       0       0       0       0       0       0       0       0       0       0
       0       0       0       0       0       0       0       0       0       0
       0       0       0       0       0       0       0       0       0       0
       0       0       0       0       0       0       0       0       0       0
       0       0       0       0       0       0       0       0       0       0
       0       0       0       0       0       0       0       0       0       0
       0       0       0       0       0       0       0       0       0       0
       0       0       0       0       0       0       0       0       0       0
       0       0       0       0       0       0       0       0       0       0
       0       0       0       0       0       0       0       0       0       0
       0       0       0       0       0       0       0       0       0       0
       0       0       0       0       0       0       0       0       0       0
       0       0       0       0       0       0       0       0       0       0
       0       0       0       0       0       0       0       0       0       0
       0       0       0       0       0       0       0       0       0       0
       0       0       0       0       0       0       0       0       0       0
       0       0       0       0       0       0       0       0       0       0
       0       0       0       0       0       0       0       0       0       0
       0       0       0       0       0       0       0       0       0       0
       0       0       0       0       0       0       0       0       0       0
       0       0       0       0       0       0       0       0       0       0
       0       0       0       0       0       0       0       0       0       0
       0       0       0       0       0       0       0       0       0       0
       0       0       0       0       0       0       0       0       0       0
       0       0       0       0       0       0       0       0       0       0
       0       0       0       0       0       0       0       0       0       0
       0       0       0       0       0       0       0       0       0       0
       0       0       0       0       0       0       0       0       0       0
       0       0       0       0       0       0       0       0       0       0
       0       0       0       0       0       0       0       0       0       0
       0       0       0       0       0       0       0       0       0       0
       0       0       0       0       0       0       0       0       0       0
       0       0       0       0       0       0       0       0       0       0
       0       0       0       0       0       0       0       0       0       0
       0       0       0       0       0       0       0       0       0       0
       0       0       0       0       0       0       0       0       0       0
       0       0       0       0       0       0       0       0       0       0
       0       0       0       0       0       0       0       0       0       0
       0       0       0       0       0       0       0       0       0       0
       0       0       0       0       0       0       0       0       0       0
       0       0       0       0       0       0       0       0       0       0
       0       0       0       0       0       0       0       0       0       0
       0       0       0       0       0       0       0       0       0       0
       0       0       0       0       0       0       0       0       0       0
       0       0       0       0       0       0       0       0       0       0
       0       0       0       0       0       0       0       0       0       0
       0       0       0       0       0       0       0       0       0       0
       0       0       0       0       0       0       0       0       0       0
       0       0       0       0       0       0       0       0       0       0
       0       0       0       0       0       0       0       0       0       0
       0       0       0       0       0       0       0       0       0       0
       0       0       0       0       0       0       0       0       0       0
       0       0       0       0       0       0       0       0       0       0
       0       0       0       0       0       0       0       0       0       0
       0       0       0       0       0       0       0       0       0       0
       0       0       0       0       0       0       0       0       0       0
       0       0       0       0       0       0       0       0       0       0
       0       0       0       0       0       0       0       0       0       0
       0       0       0       0       0       0       0       0       0       0
       0       0       0       0       0       0       0       0       0       0
       0       0       0       0       0       0       0       0       0       0
       0       0       0       0       0       0       0       0       0       0
       0       0       0       0       0       0       0       0       0       0
       0       0       0       0       0       0       0       0       0       0
       0       0       0       0       0       0       0       0       0       0
       0       0       0       0       0       0       0       0       0       0
       0       0       0       0       0       0       0       0       0       0
       0       0       0       0       0       0       0       0       0       0
       0       0       0       0       0       0       0       0       0       0
       0       0       0       0       0       0       0       0       0       0
       0       0       0       0       0       0       0       0       0       0
       0       0       0       0       0       0       0       0       0       0
       0       0       0       0       0       0       0       0       0       0
       0       0       0       0       0       0       0       0       0       0
       0       0       0       0       0       0       0       0       0       0
       0       0       0       0       0       0       0       0       0       0
       0       0       0       0       0       0       0       0       0       0
       0       0       0       0       0       0       0       0       0       0
       0       0       0       0       0       0       0       0       0       0
       0       0       0       0       0       0       0       0       0       0
       0       0       0       0       0       0       0       0       0       0
       0       0       0       0       0       0       0       0       0       0
       0       0       0       0       0       0       0       0       0       0
       0       0       0       0       0       0       0       0       0       0
       0       0       0       0       0       0       0       0       0       0
       0       0       0       0       0       0       0       0       0       0
       0       0       0       0       0       0       0       0       0       0
       0       0       0       0       0       0       0       0       0       0
       0       0       0       0       0       0       0       0       0       0
       0       0       0       0       0       0       0       0       0       0
       0       0       0       0       0       0       0       0       0       0
       0       0       0       0       0       0       0       0       0       0
       0       0       0       0       0       0       0       0       0       0
       0       0       0       0       0       0       0       0       0       0
       0       0       0       0       0       0       0       0       0       0
       0       0       0       0       0       0       0       0       0       0
       0       0       0       0       0       0       0       0       0       0
       0       0       0       0       0       0       0       0       0       0
       0       0       0       0       0       0       0       0       0       0
       0       0       0       0       0       0       0       0       0       0
       0       0       0       0       0       0       0       0       0       0
       0       0       0       0       0       0       0       0       0       0
       0       0       0       0       0       0       0       0       0       0
       0       0       0       0       0       0       0       0       0       0
       0       0       0       0       0       0       0       0       0       0
       0       0       0       0       0       0       0       0       0       0
       0       0       0       0       0       0       0       0       0       0
       0       0       0       0       0       0       0       0       0       0
       0       0       0       0       0       0       0       0       0       0
       0       0       0       0       0       0       0       0       0       0
       0       0       0       0       0       0       0       0       0       0
       0       0       0       0       0       0       0       0       0       0
       0       0       0       0       0       0       0       0       0       0
       0       0       0       0       0       0       0       0       0       0
       0       0       0       0       0       0       0       0       0       0
       0       0       0       0       0       0       0       0       0       0
       0       0       0       0       0       0       0       0       0       0
       0       0       0       0       0       0       0       0       0       0
       0       0       0       0       0       0       0       0       0       0
       0       0       0       0       0       0       0       0       0       0
       0       0       0       0       0       0       0       0       0       0
       0       0       0       0       0       0       0       0       0       0
       0       0       0       0       0       0       0       0       0       0
       0       0       0       0       0       0       0       0       0       0
       0       0       0       0       0       0       0       0       0       0
       0       0       0       0       0       0       0       0       0       0
       0       0       0       0       0       0       0       0       0       0
       0       0       0       0       0       0       0       0       0       0
       0       0       0       0       0       0       0       0       0       0
       0       0       0       0       0       0       0       0       0       0
       0       0       0       0       0       0       0       0       0       0
       0       0       0       0       0       0       0       0       0       0
       0       0       0       0       0       0       0       0       0       0
       0       0       0       0       0       0       0       0       0       0
       0       0       0       0       0       0       0       0       0       0
       0       0       0       0       0       0       0       0       0       0
       0       0       0       0       0       0       0       0       0       0
       0       0       0       0       0       0       0       0       0       0
       0       0       0       0       0       0       0       0       0       0
       0       0       0       0       0       0       0       0       0       0
       0       0       0       0       0       0       0       0       0       0
       0       0       0       0       0       0       0       0       0       0
       0       0       0       0       0       0       0       0       0       0
       0       0       0       0       0       0       0       0       0       0
       0       0       0       0       0       0       0       0       0       0
       0       0       0       0       0       0       0       0       0       0
       0       0       0       0       0       0       0       0       0       0
       0       0       0       0       0       0       0       0       0       0
       0       0       0       0       0       0       0       0       0       0
       0       0       0       0       0       0       0       0       0       0
       0       0       0       0       0       0       0       0       0       0
       0       0       0       0       0       0       0       0       0       0
       0       0       0       0       0       0       0       0       0       0
       0       0       0       0       0       0       0       0       0       0
       0       0       0       0       0       0       0       0       0       0
       0       0       0       0       0       0       0       0       0       0
       0       0       0       0       0       0       0       0       0       0
       0       0       0       0       0       0       0       0       0       0
       0       0       0       0       0       0       0       0       0       0
       0       0       0       0       0       0       0       0       0       0
       0       0       0       0       0       0       0       0       0       0
       0       0       0       0       0       0       0       0       0       0
       0       0       0       0       0       0       0       0       0       0
       0       0       0       0       0       0       0       0       0       0
       0       0       0       0       0       0       0       0       0       0
       0       0       0       0       0       0       0       0       0       0
       0       0       0       0       0       0       0       0       0       0
       0       0       0       0       0       0       0       0       0       0
       0       0       0       0       0       0       0       0       0       0
       0       0       0       0       0       0       0       0       0       0
       0       0       0       0       0       0       0       0       0       0
       0       0       0       0       0       0       0       0       0       0
       0       0       0       0       0       0       0       0       0       0
       0       0       0       0       0       0       0       0       0       0
       0       0       0       0       0       0       0       0       0       0
       0       0       0       0       0       0       0       0       0       0
       0       0       0       0       0       0       0       0       0       0
       0       0       0       0       0       0       0       0       0       0
       0       0       0       0       0       0       0       0       0       0
       0       0       0       0       0       0       0       0       0       0
       0       0       0       0       0       0       0       0       0       0
       0       0       0       0       0       0       0       0       0       0
       0       0       0       0       0       0       0       0       0       0
       0       0       0       0       0       0       0       0       0       0
       0       0       0       0       0       0       0       0       0       0
       0       0       0       0       0       0       0       0       0       0
       0       0       0       0       0       0       0       0       0       0
       0       0       0       0       0       0       0       0       0       0
       0       0       0       0       0       0       0       0       0       0
       0       0       0       0       0       0       0       0       0       0
       0       0       0       0       0       0       0       0       0       0
       0       0       0       0       0       0       0       0       0       0
       0       0       0       0       0       0       0       0       0       0
       0       0       0       0       0       0       0       0       0       0
       0       0       0       0       0       0       0       0       0       0
       0       0       0       0       0       0       0       0       0       0
       0       0       0       0       0       0       0       0       0       0
       0       0       0       0       0       0       0       0       0       0
       0       0       0       0       0       0       0       0       0       0
       0       0       0       0       0       0       0       0       0       0
       0       0       0       0       0       0       0       0       0       0
       0       0       0       0       0       0       0       0       0       0
       0       0       0       0       0       0       0       0       0       0
       0       0       0       0       0       0       0       0       0       0
       0       0       0       0       0       0       0       0       0       0
       0       0       0       0       0       0       0       0       0       0
       0       0       0       0       0       0       0       0       0       0
       0       0       0       0       0       0       0       0       0       0
       0       0       0       0       0       0       0       0       0       0
       0       0       0       0       0       0       0       0       0       0
       0       0       0       0       0       0       0       0       0       0
       0       0       0       0       0       0       0       0       0       0
       0       0       0       0       0       0       0       0       0       0
       0       0       0       0       0       0       0       0       0       0
       0       0       0       0       0       0       0       0       0       0
       0       0       0       0       0       0       0       0       0       0
       0       0       0       0       0       0       0       0       0       0
       0       0       0       0       0       0       0       0       0       0
       0       0       0       0       0       0       0       0       0       0
       0       0       0       0       0       0       0       0       0       0
       0       0       0       0       0       0       0       0       0       0
       0       0       0       0       0       0       0       0       0       0
       0       0       0       0       0       0       0       0       0       0
       0       0       0       0       0       0       0       0       0       0
       0       0       0       0       0       0       0       0       0       0
       0       0       0       0       0       0       0       0       0       0
       0       0       0       0       0       0       0       0       0       0
       0       0       0       0       0       0       0       0       0       0
       0       0       0       0       0       0       0       0       0       0
       0       0       0       0       0       0       0       0       0       0
       0       0       0       0       0       0       0       0       0       0
       0       0       0       0       0       0       0       0       0       0
       0       0       0       0       0       0       0       0       0       0
       0       0       0       0       0       0       0       0       0       0
       0       0       0       0       0       0       0       0       0       0
       0       0       0       0       0       0       0       0       0       0
       0       0       0       0       0       0       0       0       0       0
       0       0       0       0       0       0       0       0       0       0
       0       0       0       0       0       0       0       0       0       0
       0       0       0       0       0       0       0       0       0       0
       0       0       0       0       0       0       0       0       0       0
       0       0       0       0       0       0       0       0       0       0
       0       0       0       0       0       0       0       0       0       0
       0       0       0       0       0       0       0       0       0       0
       0       0       0       0       0       0       0       0       0       0
       0       0       0       0       0       0       0       0       0       0
       0       0       0       0       0       0       0       0       0       0
       0       0       0       0       0       0       0       0       0       0
       0       0       0       0       0       0       0       0       0       0
       0       0       0       0       0       0       0       0       0       0
       0       0       0       0       0       0       0       0       0       0
       0       0       0       0       0       0       0       0       0       0
       0       0       0       0       0       0       0       0       0       0
       0       0       0       0       0       0       0       0       0       0
       0       0       0       0       0       0       0       0       0       0
       0       0       0       0       0       0       0       0       0       0
       0       0       0       0       0       0       0       0       0       0
       0       0       0       0       0       0       0       0       0       0
       0       0       0       0       0       0       0       0       0       0
       0       0       0       0       0       0       0       0       0       0
       0       0       0       0       0       0       0       0       0       0
       0       0       0       0       0       0       0       0       0       0
       0       0       0       0       0       0       0       0       0       0
       0       0       0       0       0       0       0       0       0       0
       0       0       0       0       0       0       0       0       0       0
       0       0       0       0       0       0       0       0       0       0
       0       0       0       0       0       0       0       0       0       0
       0       0       0       0       0       0       0       0       0       0
       0       0       0       0       0       0       0       0       0       0
       0       0       0       0       0       0       0       0       0       0
       0       0       0       0       0       0       0       0       0       0
       0       0       0       0       0       0       0       0       0       0
       0       0       0       0       0       0       0       0       0       0
       0       0       0       0       0       0       0       0       0       0
       0       0       0       0       0       0       0       0       0       0
       0       0       0       0       0       0       0       0       0       0
       0       0       0       0       0       0       0       0       0       0
       0       0       0       0       0       0       0       0       0       0
       0       0       0       0       0       0       0       0       0       0
       0       0       0       0       0       0       0       0       0       0
       0       0       0       0       0       0       0       0       0       0
       0       0       0       0       0       0       0       0       0       0
       0       0       0       0       0       0       0       0       0       0
       0       0       0       0       0       0       0       0       0       0
       0       0       0       0       0       0       0       0       0       0
       0       0       0       0       0       0       0       0       0       0
       0       0       0       0       0       0       0       0       0       0
       0       0       0       0       0       0       0       0       0       0
       0       0       0       0       0       0       0       0       0       0
       0       0       0       0       0       0       0       0       0       0
       0       0       0       0       0       0       0       0       0       0
       0       0       0       0       0       0       0       0       0       0
       0       0       0       0       0       0       0       0       0       0
       0       0       0       0       0       0       0       0       0       0
       0       0       0       0       0       0       0       0       0       0
       0       0       0       0       0       0       0       0       0       0
       0       0       0       0       0       0       0       0       0       0
       0       0       0       0       0       0       0       0       0       0
       0       0       0       0       0       0       0       0       0       0
       0       0       0       0       0       0       0       0       0       0
       0       0       0       0       0       0       0       0       0       0
       0       0       0       0       0       0       0       0       0       0
       0       0       0       0       0       0       0       0       0       0
       0       0       0       0       0       0       0       0       0       0
       0       0       0       0       0       0       0       0       0       0
       0       0       0       0       0       0       0       0       0       0
       0       0       0       0       0       0       0       0       0       0
       0       0       0       0       0       0       0       0       0       0
       0       0       0       0       0       0       0       0       0       0
       0       0       0       0       0       0       0       0       0       0
       0       0       0       0       0       0       0       0       0       0
       0       0       0       0       0       0       0       0       0       0
       0       0       0       0       0       0       0       0       0       0
       0       0       0       0       0       0       0       0       0       0
       0       0       0       0       0       0       0       0       0       0
       0       0       0       0       0       0       0       0       0       0
       0       0       0       0       0       0       0       0       0       0
       0       0       0       0       0       0       0       0       0       0
       0       0       0       0       0       0       0       0       0       0
       0       0       0       0       0       0       0       0       0       0
       0       0       0       0       0       0       0       0       0       0
       0       0       0       0       0       0       0       0       0       0
       0       0       0       0       0       0       0       0       0       0
       0       0       0       0       0       0       0       0       0       0
       0       0       0       0       0       0       0       0       0       0
       0       0       0       0       0       0       0       0       0       0
       0       0       0       0       0       0       0       0       0       0
       0       0       0       0       0       0       0       0       0       0
       0       0       0       0       0       0       0       0       0       0
       0       0       0       0       0       0       0       0       0       0
       0       0       0       0       0       0       0       0       0       0
       0       0       0       0       0       0       0       0       0       0
       0       0       0       0       0       0       0       0       0       0
       0       0       0       0       0       0       0       0       0       0
       0       0       0       0       0       0       0       0       0       0
       0       0       0       0       0       0       0       0       0       0
       0       0       0       0       0       0       0       0       0       0
       0       0       0       0       0       0       0       0       0       0
       0       0       0       0       0       0       0       0       0       0
       0       0       0       0       0       0       0       0       0       0
       0       0       0       0       0       0       0       0       0       0
       0       0       0       0       0       0       0       0       0       0
       0       0       0       0       0       0       0       0       0       0
       0       0       0       0       0       0       0       0       0       0
       0       0       0       0       0       0       0       0       0       0
       0       0       0       0       0       0       0       0       0       0
       0       0       0       0       0       0       0       0       0       0
       0       0       0       0       0       0       0       0       0       0
       0       0       0       0       0       0       0       0       0       0
       0       0       0       0       0       0       0       0       0       0
       0       0       0       0       0       0       0       0       0       0
       0       0       0       0       0       0       0       0       0       0
       0       0       0       0       0       0       0       0       0       0
       0       0       0       0       0       0       0       0       0       0
       0       0       0       0       0       0       0       0       0       0
       0       0       0       0       0       0       0       0       0       0
       0       0       0       0       0       0       0       0       0       0
       0       0       0       0       0       0       0       0       0       0
       0       0       0       0       0       0       0       0       0       0
       0       0       0       0       0       0       0       0       0       0
       0       0       0       0       0       0       0       0       0       0
       0       0       0       0       0       0       0       0       0       0
       0       0       0       0       0       0       0       0       0       0
       0       0       0       0       0       0       0       0       0       0
       0       0       0       0       0       0       0       0       0       0
       0       0       0       0       0       0       0       0       0       0
       0       0       0       0       0       0       0       0       0       0
       0       0       0       0       0       0       0       0       0       0
       0       0       0       0       0       0       0       0       0       0
       0       0       0       0       0       0       0       0       0       0
       0       0       0       0       0       0       0       0       0       0
       0       0       0       0       0       0       0       0       0       0
       0       0       0       0       0       0       0       0       0       0
       0       0       0       0       0       0       0       0       0       0
       0       0       0       0       0       0       0       0       0       0
       0       0       0       0       0       0       0       0       0       0
       0       0       0       0       0       0       0       0       0       0
       0       0       0       0       0       0       0       0       0       0
       0       0       0       0       0       0       0       0       0       0
       0       0       0       0       0       0       0       0       0       0
       0       0       0       0       0       0       0       0       0       0
       0       0       0       0       0       0       0       0       0       0
       0       0       0       0       0       0       0       0       0       0
       0       0       0       0       0       0       0       0       0       0
       0       0       0       0       0       0       0       0       0       0
       0       0       0       0       0       0       0       0       0       0
       0       0       0       0       0       0       0       0       0       0
       0       0       0       0       0       0       0       0       0       0
       0       0       0       0       0       0       0       0       0       0
       0       0       0       0       0       0       0       0       0       0
       0       0       0       0       0       0       0       0       0       0
       0       0       0       0       0       0       0       0       0       0
       0       0       0       0       0       0       0       0       0       0
       0       0       0       0       0       0       0       0       0       0
       0       0       0       0       0       0       0       0       0       0
       0       0       0       0       0       0       0       0       0       0
       0       0       0       0       0       0       0       0       0       0
       0       0       0       0       0       0       0       0       0       0
       0       0       0       0       0       0       0       0       0       0
       0       0       0       0       0       0       0       0       0       0
       0       0       0       0       0       0       0       0       0       0
       0       0       0       0       0       0       0       0       0       0
       0       0       0       0       0       0       0       0       0       0
       0       0       0       0       0       0       0       0       0       0
       0       0       0       0       0       0       0       0       0       0
       0       0       0       0       0       0       0       0       0       0
       0       0       0       0       0       0       0       0       0       0
       0       0       0       0       0       0       0       0       0       0
       0       0       0       0       0       0       0       0       0       0
       0       0       0       0       0       0       0       0       0       0
       0       0       0       0       0       0       0       0       0       0
       0       0       0       0       0       0       0       0       0       0
       0       0       0       0       0       0       0       0       0       0
       0       0       0       0       0       0       0       0       0       0
       0       0       0       0       0       0       0       0       0       0
       0       0       0       0       0       0       0       0       0       0
       0       0       0       0       0       0       0       0       0       0
       0       0       0       0       0       0       0       0       0       0
       0       0       0       0       0       0       0       0       0       0
       0       0       0       0       0       0       0       0       0       0
       0       0       0       0       0       0       0       0       0       0
       0       0       0       0       0       0       0       0       0       0
       0       0       0       0       0       0       0       0       0       0
       0       0       0       0       0       0       0       0       0       0
       0       0       0       0       0       0       0       0       0       0
       0       0       0       0       0       0       0       0       0       0
       0       0       0       0       0       0       0       0       0       0
       0       0       0       0       0       0       0       0       0       0
       0       0       0       0       0       0       0       0       0       0
       0       0       0       0       0       0       0       0       0       0
       0       0       0       0       0       0       0       0       0       0
       0       0       0       0       0       0       0       0       0       0
       0       0       0       0       0       0       0       0       0       0
       0       0       0       0       0       0       0       0       0       0
       0       0       0       0       0       0       0       0       0       0
       0       0       0       0       0       0       0       0       0       0
       0       0       0       0       0       0       0       0       0       0
       0       0       0       0       0       0       0       0       0       0
       0       0       0       0       0       0       0       0       0       0
       0       0       0       0       0       0       0       0       0       0
       0       0       0       0       0       0       0       0       0       0
       0       0       0       0       0       0       0       0       0       0
       0       0       0       0       0       0       0       0       0       0
       0       0       0       0       0       0       0       0       0       0
       0       0       0       0       0       0       0       0       0       0
       0       0       0       0       0       0       0       0       0       0
       0       0       0       0       0       0       0       0       0       0
       0       0       0       0       0       0       0       0       0       0
       0       0       0       0       0       0       0       0       0       0
       0       0       0       0       0       0       0       0       0       0
       0       0       0       0       0       0       0       0       0       0
       0       0       0       0       0       0       0       0       0       0
       0       0       0       0       0       0       0       0       0       0
       0       0       0       0       0       0       0       0       0       0
       0       0       0       0       0       0       0       0       0       0
       0       0       0       0       0       0       0       0       0       0
       0       0       0       0       0       0       0       0       0       0
       0       0       0       0       0       0       0       0       0       0
       0       0       0       0       0       0       0       0       0       0
       0       0       0       0       0       0       0       0       0       0
       0       0       0       0       0       0       0       0       0       0
       0       0       0       0       0       0       0       0       0       0
       0       0       0       0       0       0       0       0       0       0
       0       0       0       0       0       0       0       0       0       0
       0       0       0       0       0       0       0       0       0       0
       0       0       0       0       0       0       0       0       0       0
       0       0       0       0       0       0       0       0       0       0
       0       0       0       0       0       0       0       0       0       0
       0       0       0       0       0       0       0       0       0       0
       0       0       0       0       0       0       0       0       0       0
       0       0       0       0       0       0       0       0       0       0
       0       0       0       0       0       0       0       0       0       0
       0       0       0       0       0       0       0       0       0       0
       0       0       0       0       0       0       0       0       0       0
       0       0       0       0       0       0       0       0       0       0
       0       0       0       0       0       0       0       0       0       0
       0       0       0       0       0       0       0       0       0       0
       0       0       0       0       0       0       0       0       0       0
       0       0       0       0       0       0       0       0       0       0
       0       0       0       0       0       0       0       0       0       0
       0       0       0       0       0       0       0       0       0       0
       0       0       0       0       0       0       0       0       0       0
       0       0       0       0       0       0       0       0       0       0
       0       0       0       0       0       0       0       0       0       0
       0       0       0       0       0       0       0       0       0       0
       0       0       0       0       0       0       0       0       0       0
       0       0       0       0       0       0       0       0       0       0
       0       0       0       0       0       0       0       0       0       0
       0       0       0       0       0       0       0       0       0       0
       0       0       0       0       0       0       0       0       0       0
       0       0       0       0       0       0       0       0       0       0
       0       0       0       0       0       0       0       0       0       0
       0       0       0       0       0       0       0       0       0       0
       0       0       0       0       0       0       0       0       0       0
       0       0       0       0       0       0       0       0       0       0
       0       0       0       0       0       0       0       0       0       0
       0       0       0       0       0       0       0       0       0       0
       0       0       0       0       0       0       0       0       0       0
       0       0       0       0       0       0       0       0       0       0
       0       0       0       0       0       0       0       0       0       0
       0       0       0       0       0       0       0       0       0       0
       0       0       0       0       0       0       0       0       0       0
       0       0       0       0       0       0       0       0       0       0
       0       0       0       0       0       0       0       0       0       0
       0       0       0       0       0       0       0       0       0       0
       0       0       0       0       0       0       0       0       0       0
       0       0       0       0       0       0       0       0       0       0
       0       0       0       0       0       0       0       0       0       0
       0       0       0       0       0       0       0       0       0       0
       0       0       0       0       0       0       0       0       0       0
       0       0       0       0       0       0       0       0       0       0
       0       0       0       0       0       0       0       0       0       0
       0       0       0       0       0       0       0       0       0       0
       0       0       0       0       0       0       0       0       0       0
       0       0       0       0       0       0       0       0       0       0
       0       0       0       0       0       0       0       0       0       0
       0       0       0       0       0       0       0       0       0       0
       0       0       0       0       0       0       0       0       0       0
       0       0       0       0       0       0       0       0       0       0
       0       0       0       0       0       0       0       0       0       0
       0       0       0       0       0       0       0       0       0       0
       0       0       0       0       0       0       0       0       0       0
       0       0       0       0       0       0       0       0       0       0
       0       0       0       0       0       0       0       0       0       0
       0       0       0       0       0       0       0       0       0       0
       0       0       0       0       0       0       0       0       0       0
       0       0       0       0       0       0       0       0       0       0
       0       0       0       0       0       0       0       0       0       0
       0       0       0       0       0       0       0       0       0       0
       0       0       0       0       0       0       0       0       0       0
       0       0       0       0       0       0       0       0       0       0
       0       0       0       0       0       0       0       0       0       0
       0       0       0       0       0       0       0       0       0       0
       0       0       0       0       0       0       0       0       0       0
       0       0       0       0       0       0       0       0       0       0
       0       0       0       0       0       0       0       0       0       0
       0       0       0       0       0       0       0       0       0       0
       0       0       0       0       0       0       0       0       0       0
       0       0       0       0       0       0       0       0       0       0
       0       0       0       0       0       0       0       0       0       0
       0       0       0       0       0       0       0       0       0       0
       0       0       0       0       0       0       0       0       0       0
       0       0       0       0       0       0       0       0       0       0
       0       0       0       0       0       0       0       0       0       0
       0       0       0       0       0       0       0       0       0       0
       0       0       0       0       0       0       0       0       0       0
       0       0       0       0       0       0       0       0       0       0
       0       0       0       0       0       0       0       0       0       0
       0       0       0       0       0       0       0       0       0       0
       0       0       0       0       0       0       0       0       0       0
       0       0       0       0       0       0       0       0       0       0
       0       0       0       0       0       0       0       0       0       0
       0       0       0       0       0       0       0       0       0       0
       0       0       0       0       0       0       0       0       0       0
       0       0       0       0       0       0       0       0       0       0
       0       0       0       0       0       0       0       0       0       0
       0       0       0       0       0       0       0       0       0       0
       0       0       0       0       0       0       0       0       0       0
       0       0       0       0       0       0       0       0       0       0
       0       0       0       0       0       0       0       0       0       0
       0       0       0       0       0       0       0       0       0       0
       0       0       0       0       0       0       0       0       0       0
       0       0       0       0       0       0       0       0       0       0
       0       0       0       0       0       0       0       0       0       0
       0       0       0       0       0       0       0       0       0       0
       0       0       0       0       0       0       0       0       0       0
       0       0       0       0       0       0       0       0       0       0
       0       0       0       0       0       0       0       0       0       0
       0       0       0       0       0       0       0       0       0       0
       0       0       0       0       0       0       0       0       0       0
       0       0       0       0       0       0       0       0       0       0
       0       0       0       0       0       0       0       0       0       0
       0       0       0       0       0       0       0       0       0       0
       0       0       0       0       0       0       0       0       0       0
       0       0       0       0       0       0       0       0       0       0
       0       0       0       0       0       0       0       0       0       0
       0       0       0       0       0       0       0       0       0       0
       0       0       0       0       0       0       0       0       0       0
       0       0       0       0       0       0       0       0       0       0
       0       0       0       0       0       0       0       0       0       0
       0       0       0       0       0       0       0       0       0       0
       0       0       0       0       0       0       0       0       0       0
       0       0       0       0       0       0       0       0       0       0
       0       0       0       0       0       0       0       0       0       0
       0       0       0       0       0       0       0       0       0       0
       0       0       0       0       0       0       0       0       0       0
       0       0       0       0       0       0       0       0       0       0
       0       0       0       0       0       0       0       0       0       0
       0       0       0       0       0       0       0       0       0       0
       0       0       0       0       0       0       0       0       0       0
       0       0       0       0       0       0       0       0       0       0
       0       0       0       0       0       0       0       0       0       0
       0       0       0       0       0       0       0       0       0       0
       0       0       0       0       0       0       0       0       0       0
       0       0       0       0       0       0       0       0       0       0
       0       0       0       0       0       0       0       0       0       0
       0       0       0       0       0       0       0       0       0       0
       0       0       0       0       0       0       0       0       0       0
       0       0       0       0       0       0       0       0       0       0
       0       0       0       0       0       0       0       0       0       0
       0       0       0       0       0       0       0       0       0       0
       0       0       0       0       0       0       0       0       0       0
       0       0       0       0       0       0       0       0       0       0
       0       0       0       0       0       0       0       0       0       0
       0       0       0       0       0       0       0       0       0       0
       0       0       0       0       0       0       0       0       0       0
       0       0       0       0       0       0       0       0       0       0
       0       0       0       0       0       0       0       0       0       0
       0       0       0       0       0       0       0       0       0       0
       0       0       0       0       0       0       0       0       0       0
       0       0       0       0       0       0       0       0       0       0
       0       0       0       0       0       0       0       0       0       0
       0       0       0       0       0       0       0       0       0       0
       0       0       0       0       0       0       0       0       0       0
       0       0       0       0       0       0       0       0       0       0
       0       0       0       0       0       0       0       0       0       0
       0       0       0       0       0       0       0       0       0       0
       0       0       0       0       0       0       0       0       0       0
       0       0       0       0       0       0       0       0       0       0
       0       0       0       0       0       0       0       0       0       0
       0       0       0       0       0       0       0       0       0       0
       0       0       0       0       0       0       0       0       0       0
       0       0       0       0       0       0       0       0       0       0
       0       0       0       0       0       0       0       0       0       0
       0       0       0       0       0       0       0       0       0       0
       0       0       0       0       0       0       0       0       0       0
       0       0       0       0       0       0       0       0       0       0
       0       0       0       0       0       0       0       0       0       0
       0       0       0       0       0       0       0       0       0       0
       0       0       0       0       0       0       0       0       0       0
       0       0       0       0       0       0       0       0       0       0
       0       0       0       0       0       0       0       0       0       0
       0       0       0       0       0       0       0       0       0       0
       0       0       0       0       0       0       0       0       0       0
       0       0       0       0       0       0       0       0       0       0
       0       0       0       0       0       0       0       0       0       0
       0       0       0       0       0       0       0       0       0       0
       0       0       0       0       0       0       0       0       0       0
       0       0       0       0       0       0       0       0       0       0
       0       0       0       0       0       0       0       0       0       0
       0       0       0       0       0       0       0       0       0       0
       0       0       0       0       0       0       0       0       0       0
       0       0       0       0       0       0       0       0       0       0
       0       0       0       0       0       0       0       0       0       0
       0       0       0       0       0       0       0       0       0       0
       0       0       0       0       0       0       0       0       0       0
       0       0       0       0       0       0       0       0       0       0
       0       0       0       0       0       0       0       0       0       0
       0       0       0       0       0       0       0       0       0       0
       0       0       0       0       0       0       0       0       0       0
       0       0       0       0       0       0       0       0       0       0
       0       0       0       0       0       0       0       0       0       0
       0       0       0       0       0       0       0       0       0       0
       0       0       0       0       0       0       0       0       0       0
       0       0       0       0       0       0       0       0       0       0
       0       0       0       0       0       0       0       0       0       0
       0       0       0       0       0       0       0       0       0       0
       0       0       0       0       0       0       0       0       0       0
       0       0       0       0       0       0       0       0       0       0
       0       0       0       0       0       0       0       0       0       0
       0       0       0       0       0       0       0       0       0       0
       0       0       0       0       0       0       0       0       0       0
       0       0       0       0       0       0       0       0       0       0
       0       0       0       0       0       0       0       0       0       0
       0       0       0       0       0       0       0       0       0       0
       0       0       0       0       0       0       0       0       0       0
       0       0       0       0       0       0       0       0       0       0
       0       0       0       0       0       0       0       0       0       0
       0       0       0       0       0       0       0       0       0       0
       0       0       0       0       0       0       0       0       0       0
       0       0       0       0       0       0       0       0       0       0
       0       0       0       0       0       0       0       0       0       0
       0       0       0       0       0       0       0       0       0       0
       0       0       0       0       0       0       0       0       0       0
       0       0       0       0       0       0       0       0       0       0
       0       0       0       0       0       0       0       0       0       0
       0       0       0       0       0       0       0       0       0       0
       0       0       0       0       0       0       0       0       0       0
       0       0       0       0       0       0       0       0       0       0
       0       0       0       0       0       0       0       0       0       0
       0       0       0       0       0       0       0       0       0       0
       0       0       0       0       0       0       0       0       0       0
       0       0       0       0       0       0       0       0       0       0
       0       0       0       0       0       0       0       0       0       0
       0       0       0       0       0       0       0       0       0       0
       0       0       0       0       0       0       0       0       0       0
       0       0       0       0       0       0       0       0       0       0
       0       0       0       0       0       0       0       0       0       0
       0       0       0       0       0       0       0       0       0       0
       0       0       0       0       0       0       0       0       0       0
       0       0       0       0       0       0       0       0       0       0
       0       0       0       0       0       0       0       0       0       0
       0       0       0       0       0       0       0       0       0       0
       0       0       0       0       0       0       0       0       0       0
       0       0       0       0       0       0       0       0       0       0
       0       0       0       0       0       0       0       0       0       0
       0       0       0       0       0       0       0       0       0       0
       0       0       0       0       0       0       0       0       0       0
       0       0       0       0       0       0       0       0       0       0
       0       0       0       0       0       0       0       0       0       0
       0       0       0       0       0       0       0       0       0       0
       0       0       0       0       0       0       0       0       0       0
       0       0       0       0       0       0       0       0       0       0
       0       0       0       0       0       0       0       0       0       0
       0       0       0       0       0       0       0       0       0       0
       0       0       0       0       0       0       0       0       0       0
       0       0       0       0       0       0       0       0       0       0
       0       0       0       0       0       0       0       0       0       0
       0       0       0       0       0       0       0       0       0       0
       0       0       0       0       0       0       0       0       0       0
       0       0       0       0       0       0       0       0       0       0
       0       0       0       0       0       0       0       0       0       0
       0       0       0       0       0       0       0       0       0       0
       0       0       0       0       0       0       0       0       0       0
       0       0       0       0       0       0       0       0       0       0
       0       0       0       0       0       0       0       0       0       0
       0       0       0       0       0       0       0       0       0       0
       0       0       0       0       0       0       0       0       0       0
       0       0       0       0       0       0       0       0       0       0
       0       0       0       0       0       0       0       0       0       0
       0       0       0       0       0       0       0       0       0       0
       0       0       0       0       0       0       0       0       0       0
       0       0       0       0       0       0       0       0       0       0
       0       0       0       0       0       0       0       0       0       0
       0       0       0       0       0       0       0       0       0       0
       0       0       0       0       0       0       0       0       0       0
       0       0       0       0       0       0       0       0       0       0
       0       0       0       0       0       0       0       0       0       0
       0       0       0       0       0       0       0       0       0       0
       0       0       0       0       0       0       0       0       0       0
       0       0       0       0       0       0       0       0       0       0
       0       0       0       0       0       0       0       0       0       0
       0       0       0       0       0       0       0       0       0       0
       0       0       0       0       0       0       0       0       0       0
       0       0       0       0       0       0       0       0       0       0
       0       0       0       0       0       0       0       0       0       0
       0       0       0       0       0       0       0       0       0       0
       0       0       0       0       0       0       0       0       0       0
       0       0       0       0       0       0       0       0       0       0
       0       0       0       0       0       0       0       0       0       0
       0       0       0       0       0       0       0       0       0       0
       0       0       0       0       0       0       0       0       0       0
       0       0       0       0       0       0       0       0       0       0
       0       0       0       0       0       0       0       0       0       0
       0       0       0       0       0       0       0       0       0       0
       0       0       0       0       0       0       0       0       0       0
       0       0       0       0       0       0       0       0       0       0
       0       0       0       0       0       0       0       0       0       0
       0       0       0       0       0       0       0       0       0       0
       0       0       0       0       0       0       0       0       0       0
       0       0       0       0       0       0       0       0       0       0
       0       0       0       0       0       0       0       0       0       0
       0       0       0       0       0       0       0       0       0       0
       0       0       0       0       0       0       0       0       0       0
       0       0       0       0       0       0       0       0       0       0
       0       0       0       0       0       0       0       0       0       0
       0       0       0       0       0       0       0       0       0       0
       0       0       0       0       0       0       0       0       0       0
       0       0       0       0       0       0       0       0       0       0
       0       0       0       0       0       0       0       0       0       0
       0       0       0       0       0       0       0       0       0       0
       0       0       0       0       0       0       0       0       0       0
       0       0       0       0       0       0       0       0       0       0
       0       0       0       0       0       0       0       0       0       0
       0       0       0       0       0       0       0       0       0       0
       0       0       0       0       0       0       0       0       0       0
       0       0       0       0       0       0       0       0       0       0
       0       0       0       0       0       0       0       0       0       0
       0       0       0       0       0       0       0       0       0       0
       0       0       0       0       0       0       0       0       0       0
       0       0       0       0       0       0       0       0       0       0
       0       0       0       0       0       0       0       0       0       0
       0       0       0       0       0       0       0       0       0       0
       0       0       0       0       0       0       0       0       0       0
       0       0       0       0       0       0       0       0       0       0
       0       0       0       0       0       0       0       0       0       0
       0       0       0       0       0       0       0       0       0       0
       0       0       0       0       0       0       0       0       0       0
       0       0       0       0       0       0       0       0       0       0
       0       0       0       0       0       0       0       0       0       0
       0       0       0       0       0       0       0       0       0       0
       0       0       0       0       0       0       0       0       0       0
       0       0       0       0       0       0       0       0       0       0
       0       0       0       0       0       0       0       0       0       0
       0       0       0       0       0       0       0       0       0       0
       0       0       0       0       0       0       0       0       0       0
       0       0       0       0       0       0       0       0       0       0
       0       0       0       0       0       0       0       0       0       0
       0       0       0       0       0       0       0       0       0       0
       0       0       0       0       0       0       0       0       0       0
       0       0       0       0       0       0       0       0       0       0
       0       0       0       0       0       0       0       0       0       0
       0       0       0       0       0       0       0       0       0       0
       0       0       0       0       0       0       0       0       0       0
       0       0       0       0       0       0       0       0       0       0
       0       0       0       0       0       0       0       0       0       0
       0       0       0       0       0       0       0       0       0       0
       0       0       0       0       0       0       0       0       0       0
       0       0       0       0       0       0       0       0       0       0
       0       0       0       0       0       0       0       0       0       0
       0       0       0       0       0       0       0       0       0       0
       0       0       0       0       0       0       0       0       0       0
       0       0       0       0       0       0       0       0       0       0
       0       0       0       0       0       0       0       0       0       0
       0       0       0       0       0       0       0       0       0       0
       0       0       0       0       0       0       0       0       0       0
       0       0       0       0       0       0       0       0       0       0
       0       0       0       0       0       0       0       0       0       0
       0       0       0       0       0       0       0       0       0       0
       0       0       0       0       0       0       0       0       0       0
       0       0       0       0       0       0       0       0       0       0
       0       0       0       0       0       0       0       0       0       0
       0       0       0       0       0       0       0       0       0       0
       0       0       0       0       0       0       0       0       0       0
       0       0       0       0       0       0       0       0       0       0
       0       0       0       0       0       0       0       0       0       0
       0       0       0       0       0       0       0       0       0       0
       0       0       0       0       0       0       0       0       0       0
       0       0       0       0       0       0       0       0       0       0
       0       0       0       0       0       0       0       0       0       0
       0       0       0       0       0       0       0       0       0       0
       0       0       0       0       0       0       0       0       0       0
       0       0       0       0       0       0       0       0       0       0
       0       0       0       0       0       0       0       0       0       0
       0       0       0       0       0       0       0       0       0       0
       0       0       0       0       0       0       0       0       0       0
       0       0       0       0       0       0       0       0       0       0
       0       0       0       0       0       0       0       0       0       0
       0       0       0       0       0       0       0       0       0       0
       0       0       0       0       0       0       0       0       0       0
       0       0       0       0       0       0       0       0       0       0
       0       0       0       0       0       0       0       0       0       0
       0       0       0       0       0       0       0       0       0       0
       0       0       0       0       0       0       0       0       0       0
       0       0       0       0       0       0       0       0       0       0
       0       0       0       0       0       0       0       0       0       0
       0       0       0       0       0       0       0       0       0       0
       0       0       0       0       0       0       0       0       0       0
       0       0       0       0       0       0       0       0       0       0
       0       0       0       0       0       0       0       0       0       0
       0       0       0       0       0       0       0       0       0       0
       0       0       0       0       0       0       0       0       0       0
       0       0       0       0       0       0       0       0       0       0
       0       0       0       0       0       0       0       0       0       0
       0       0       0       0       0       0       0       0       0       0
       0       0       0       0       0       0       0       0       0       0
       0       0       0       0       0       0       0       0       0       0
       0       0       0       0       0       0       0       0       0       0
       0       0       0       0       0       0       0       0       0       0
       0       0       0       0       0       0       0       0       0       0
       0       0       0       0       0       0       0       0       0       0
       0       0       0       0       0       0       0       0       0       0
       0       0       0       0       0       0       0       0       0       0
       0       0       0       0       0       0       0       0       0       0
       0       0       0       0       0       0       0       0       0       0
       0       0       0       0       0       0       0       0       0       0
       0       0       0       0       0       0       0       0       0       0
       0       0       0       0       0       0       0       0       0       0
       0       0       0       0       0       0       0       0       0       0
       0       0       0       0       0       0       0       0       0       0
       0       0       0       0       0       0       0       0       0       0
       0       0       0       0       0       0       0       0       0       0
       0       0       0       0       0       0       0       0       0       0
       0       0       0       0       0       0       0       0       0       0
       0       0       0       0       0       0       0       0       0       0
       0       0       0       0       0       0       0       0       0       0
       0       0       0       0       0       0       0       0       0       0
       0       0       0       0       0       0       0       0       0       0
       0       0       0       0       0       0       0       0       0       0
       0       0       0       0       0       0       0       0       0       0
       0       0       0       0       0       0       0       0       0       0
       0       0       0       0       0       0       0       0       0       0
       0       0       0       0       0       0       0       0       0       0
       0       0       0       0       0       0       0       0       0       0
       0       0       0       0       0       0       0       0       0       0
       0       0       0       0       0       0       0       0       0       0
       0       0       0       0       0       0       0       0       0       0
       0       0       0       0       0       0       0       0       0       0
       0       0       0       0       0       0       0       0       0       0
       0       0       0       0       0       0       0       0       0       0
       0       0       0       0       0       0       0       0       0       0
       0       0       0       0       0       0       0       0       0       0
       0       0       0       0       0       0       0       0       0       0
       0       0       0       0       0       0       0       0       0       0
       0       0       0       0       0       0       0       0       0       0
       0       0       0       0       0       0       0       0       0       0
       0       0       0       0       0       0       0       0       0       0
       0       0       0       0       0       0       0       0       0       0
       0       0       0       0       0       0       0       0       0       0
       0       0       0       0       0       0       0       0       0       0
       0       0       0       0       0       0       0       0       0       0
       0       0       0       0       0       0       0       0       0       0
       0       0       0       0       0       0       0       0       0       0
       0       0       0       0       0       0       0       0       0       0
       0       0       0       0       0       0       0       0       0       0
       0       0       0       0       0       0       0       0       0       0
       0       0       0       0       0       0       0       0       0       0
       0       0       0       0       0       0       0       0       0       0
       0       0       0       0       0       0       0       0       0       0
       0       0       0       0       0       0       0       0       0       0
       0       0       0       0       0       0       0       0       0       0
       0       0       0       0       0       0       0       0       0       0
       0       0       0       0       0       0       0       0       0       0
       0       0       0       0       0       0       0       0       0       0
       0       0       0       0       0       0       0       0       0       0
       0       0       0       0       0       0       0       0       0       0
       0       0       0       0       0       0       0       0       0       0
       0       0       0       0       0       0       0       0       0       0
       0       0       0       0       0       0       0       0       0       0
       0       0       0       0       0       0       0       0       0       0
       0       0       0       0       0       0       0       0       0       0
       0       0       0       0       0       0       0       0       0       0
       0       0       0       0       0       0       0       0       0       0
       0       0       0       0       0       0       0       0       0       0
       0       0       0       0       0       0       0       0       0       0
       0       0       0       0       0       0       0       0       0       0
       0       0       0       0       0       0       0       0       0       0
       0       0       0       0       0       0       0       0       0       0
       0       0       0       0       0       0       0       0       0       0
       0       0       0       0       0       0       0       0       0       0
       0       0       0       0       0       0       0       0       0       0
       0       0       0       0       0       0       0       0       0       0
       0       0       0       0       0       0       0       0       0       0
       0       0       0       0       0       0       0       0       0       0
       0       0       0       0       0       0       0       0       0       0
       0       0       0       0       0       0       0       0       0       0
       0       0       0       0       0       0       0       0       0       0
       0       0       0       0       0       0       0       0       0       0
       0       0       0       0       0       0       0       0       0       0
       0       0       0       0       0       0       0       0       0       0
       0       0       0       0       0       0       0       0       0       0
       0       0       0       0       0       0       0       0       0       0
       0       0       0       0       0       0       0       0       0       0
       0       0       0       0       0       0       0       0       0       0
       0       0       0       0       0       0       0       0       0       0
       0       0       0       0       0       0       0       0       0       0
       0       0       0       0       0       0       0       0       0       0
       0       0       0       0       0       0       0       0       0       0
       0       0       0       0       0       0       0       0       0       0
       0       0       0       0       0       0       0       0       0       0
       0       0       0       0       0       0       0       0       0       0
       0       0       0       0       0       0       0       0       0       0
       0       0       0       0       0       0       0       0       0       0
       0       0       0       0       0       0       0       0       0       0
       0       0       0       0       0       0       0       0       0       0
       0       0       0       0       0       0       0       0       0       0
       0       0       0       0       0       0       0       0       0       0
       0       0       0       0       0       0       0       0       0       0
       0       0       0       0       0       0       0       0       0       0
       0       0       0       0       0       0       0       0       0       0
       0       0       0       0       0       0       0       0       0       0
       0       0       0       0       0       0       0       0       0       0
       0       0       0       0       0       0       0       0       0       0
       0       0       0       0       0       0       0       0       0       0
       0       0       0       0       0       0       0       0       0       0
       0       0       0       0       0       0       0       0       0       0
       0       0       0       0       0       0       0       0       0       0
       0       0       0       0       0       0       0       0       0       0
       0       0       0       0       0       0       0       0       0       0
       0       0       0       0       0       0       0       0       0       0
       0       0       0       0       0       0       0       0       0       0
       0       0       0       0       0       0       0       0       0       0
       0       0       0       0       0       0       0       0       0       0
       0       0       0       0       0       0       0       0       0       0
       0       0       0       0       0       0       0       0       0       0
       0       0       0       0       0       0       0       0       0       0
       0       0       0       0       0       0       0       0       0       0
       0       0       0       0       0       0       0       0       0       0
       0       0       0       0       0       0       0       0       0       0
       0       0       0       0       0       0       0       0       0       0
       0       0       0       0       0       0       0       0       0       0
       0       0       0       0       0       0       0       0       0       0
       0       0       0       0       0       0       0       0       0       0
       0       0       0       0       0       0       0       0       0       0
       0       0       0       0       0       0       0       0       0       0
       0       0       0       0       0       0       0       0       0       0
       0       0       0       0       0       0       0       0       0       0
       0       0       0       0       0       0       0       0       0       0
       0       0       0       0       0       0       0       0       0       0
       0       0       0       0       0       0       0       0       0       0
       0       0       0       0       0       0       0       0       0       0
       0       0       0       0       0       0       0       0       0       0
       0       0       0       0       0       0       0       0       0       0
       0       0       0       0       0       0       0       0       0       0
       0       0       0       0       0       0       0       0       0       0
       0       0       0       0       0       0       0       0       0       0
       0       0       0       0       0       0       0       0       0       0
       0       0       0       0       0       0       0       0       0       0
       0       0       0       0       0       0       0       0       0       0
       0       0       0       0       0       0       0       0       0       0
       0       0       0       0       0       0       0       0       0       0
       0       0       0       0       0       0       0       0       0       0
       0       0       0       0       0       0       0       0       0       0
       0       0       0       0       0       0       0       0       0       0
       0       0       0       0       0       0       0       0       0       0
       0       0       0       0       0       0       0       0       0       0
       0       0       0       0       0       0       0       0       0       0
       0       0       0       0       0       0       0       0       0       0
       0       0       0       0       0       0       0       0       0       0
       0       0       0       0       0       0       0       0       0       0
       0       0       0       0       0       0       0       0       0       0
       0       0       0       0       0       0       0       0       0       0
       0       0       0       0       0       0       0       0       0       0
       0       0       0       0       0       0       0       0       0       0
       0       0       0       0       0       0       0       0       0       0
       0       0       0       0       0       0       0       0       0       0
       0       0       0       0       0       0       0       0       0       0
       0       0       0       0       0       0       0       0       0       0
       0       0       0       0       0       0       0       0       0       0
       0       0       0       0       0       0       0       0       0       0
       0       0       0       0       0       0       0       0       0       0
       0       0       0       0       0       0       0       0       0       0
       0       0       0       0       0       0       0       0       0       0
       0       0       0       0       0       0       0       0       0       0
       0       0       0       0       0       0       0       0       0       0
       0       0       0       0       0       0       0       0       0       0
       0       0       0       0       0       0       0       0       0       0
       0       0       0       0       0       0       0       0       0       0
       0       0       0       0       0       0       0       0       0       0
       0       0       0       0       0       0       0       0       0       0
       0       0       0       0       0       0       0       0       0       0
       0       0       0       0       0       0       0       0       0       0
       0       0       0       0       0       0       0       0       0       0
       0       0       0       0       0       0       0       0       0       0
       0       0       0       0       0       0       0       0       0       0
       0       0       0       0       0       0       0       0       0       0
       0       0       0       0       0       0       0       0       0       0
       0       0       0       0       0       0       0       0       0       0
       0       0       0       0       0       0       0       0       0       0
       0       0       0       0       0       0       0       0       0       0
       0       0       0       0       0       0       0       0       0       0
       0       0       0       0       0       0       0       0       0       0
       0       0       0       0       0       0       0       0       0       0
       0       0       0       0       0       0       0       0       0       0
       0       0       0       0       0       0       0       0       0       0
       0       0       0       0       0       0       0       0       0       0
       0       0       0       0       0       0       0       0       0       0
       0       0       0       0       0       0       0       0       0       0
       0       0       0       0       0       0       0       0       0       0
       0       0       0       0       0       0       0       0       0       0
       0       0       0       0       0       0       0       0       0       0
       0       0       0       0       0       0       0       0       0       0
       0       0       0       0       0       0       0       0       0       0
       0       0       0       0       0       0       0       0       0       0
       0       0       0       0       0       0       0       0       0       0
       0       0       0       0       0       0       0       0       0       0
       0       0       0       0       0       0       0       0       0       0
       0       0       0       0       0       0       0       0       0       0
       0       0       0       0       0       0       0       0       0       0
       0       0       0       0       0       0       0       0       0       0
       0       0       0       0       0       0       0       0       0       0
       0       0       0       0       0       0       0       0       0       0
       0       0       0       0       0       0       0       0       0       0
       0       0       0       0       0       0       0       0       0       0
       0       0       0       0       0       0       0       0       0       0
       0       0       0       0       0       0       0       0       0       0
       0       0       0       0       0       0       0       0       0       0
       0       0       0       0       0       0       0       0       0       0
       0       0       0       0       0       0       0       0       0       0
       0       0       0       0       0       0       0       0       0       0
       0       0       0       0       0       0       0       0       0       0
       0       0       0       0       0       0       0       0       0       0
       0       0       0       0       0       0       0       0       0       0
       0       0       0       0       0       0       0       0       0       0
       0       0       0       0       0       0       0       0       0       0
       0       0       0       0       0       0       0       0       0       0
       0       0       0       0       0       0       0       0       0       0
       0       0       0       0       0       0       0       0       0       0
       0       0       0       0       0       0       0       0       0       0
       0       0       0       0       0       0       0       0       0       0
       0       0       0       0       0       0       0       0       0       0
       0       0       0       0       0       0       0       0       0       0
       0       0       0       0       0       0       0       0       0       0
       0       0       0       0       0       0       0       0       0       0
       0       0       0       0       0       0       0       0       0       0
       0       0       0       0       0       0       0       0       0       0
       0       0       0       0       0       0       0       0       0       0
       0       0       0       0       0       0       0       0       0       0
       0       0       0       0       0       0       0       0       0       0
       0       0       0       0       0       0       0       0       0       0
       0       0       0       0       0       0       0       0       0       0
       0       0       0       0       0       0       0       0       0       0
       0       0       0       0       0       0       0       0       0       0
       0       0       0       0       0       0       0       0       0       0
       0       0       0       0       0       0       0       0       0       0
       0       0       0       0       0       0       0       0       0       0
       0       0       0       0       0       0       0       0       0       0
       0       0       0       0       0       0       0       0       0       0
       0       0       0       0       0       0       0       0       0       0
       0       0       0       0       0       0       0       0       0       0
       0       0       0       0       0       0       0       0       0       0
       0       0       0       0       0       0       0       0       0       0
       0       0       0       0       0       0       0       0       0       0
       0       0       0       0       0       0       0       0       0       0
       0       0       0       0       0       0       0       0       0       0
       0       0       0       0       0       0       0       0       0       0
       0       0       0       0       0       0       0       0       0       0
       0       0       0       0       0       0       0       0       0       0
       0       0       0       0       0       0       0       0       0       0
       0       0       0       0       0       0       0       0       0       0
       0       0       0       0       0       0       0       0       0       0
       0       0       0       0       0       0       0       0       0       0
       0       0       0       0       0       0       0       0       0       0
       0       0       0       0       0       0       0       0       0       0
       0       0       0       0       0       0       0       0       0       0
       0       0       0       0       0       0       0       0       0       0
       0       0       0       0       0       0       0       0       0       0
       0       0       0       0       0       0       0       0       0       0
       0       0       0       0       0       0       0       0       0       0
       0       0       0       0       0       0       0       0       0       0
       0       0       0       0       0       0       0       0       0       0
       0       0       0       0       0       0       0       0       0       0
       0       0       0       0       0       0       0       0       0       0
       0       0       0       0       0       0       0       0       0       0
       0       0       0       0       0       0       0       0       0       0
       0       0       0       0       0       0       0       0       0       0
       0       0       0       0       0       0       0       0       0       0
       0       0       0       0       0       0       0       0       0       0
       0       0       0       0       0       0       0       0       0       0
       0       0       0       0       0       0       0       0       0       0
       0       0       0       0       0       0       0       0       0       0
       0       0       0       0       0       0       0       0       0       0
       0       0       0       0       0       0       0       0       0       0
       0       0       0       0       0       0       0       0       0       0
       0       0       0       0       0       0       0       0       0       0
       0       0       0       0       0       0       0       0       0       0
       0       0       0       0       0       0       0       0       0       0
       0       0       0       0       0       0       0       0       0       0
       0       0       0       0       0       0       0       0       0       0
       0       0       0       0       0       0       0       0       0       0
       0       0       0       0       0       0       0       0       0       0
       0       0       0       0       0       0       0       0       0       0
       0       0       0       0       0       0       0       0       0       0
       0       0       0       0       0       0       0       0       0       0
       0       0       0       0       0       0       0       0       0       0
       0       0       0       0       0       0       0       0       0       0
       0       0       0       0       0       0       0       0       0       0
       0       0       0       0       0       0       0       0       0       0
       0       0       0       0       0       0       0       0       0       0
       0       0       0       0       0       0       0       0       0       0
       0       0       0       0       0       0       0       0       0       0
       0       0       0       0       0       0       0       0       0       0
       0       0       0       0       0       0       0       0       0       0
       0       0       0       0       0       0       0       0       0       0
       0       0       0       0       0       0       0       0       0       0
       0       0       0       0       0       0       0       0       0       0
       0       0       0       0       0       0       0       0       0       0
       0       0       0       0       0       0       0       0       0       0
       0       0       0       0       0       0       0       0       0       0
       0       0       0       0       0       0       0       0       0       0
       0       0       0       0       0       0       0       0       0       0
       0       0       0       0       0       0       0       0       0       0
       0       0       0       0       0       0       0       0       0       0
       0       0       0       0       0       0       0       0       0       0
       0       0       0       0       0       0       0       0       0       0
       0       0       0       0       0       0       0       0       0       0
       0       0       0       0       0       0       0       0       0       0
       0       0       0       0       0       0       0       0       0       0
       0       0       0       0       0       0       0       0       0       0
       0       0       0       0       0       0       0       0       0       0
       0       0       0       0       0       0       0       0       0       0
       0       0       0       0       0       0       0       0       0       0
       0       0       0       0       0       0       0       0       0       0
       0       0       0       0       0       0       0       0       0       0
       0       0       0       0       0       0       0       0       0       0
       0       0       0       0       0       0       0       0       0       0
       0       0       0       0       0       0       0       0       0       0
       0       0       0       0       0       0       0       0       0       0
       0       0       0       0       0       0       0       0       0       0
       0       0       0       0       0       0       0       0       0       0
       0       0       0       0       0       0       0       0       0       0
       0       0       0       0       0       0       0       0       0       0
       0       0       0       0       0       0       0       0       0       0
       0       0       0       0       0       0       0       0       0       0
       0       0       0       0       0       0       0       0       0       0
       0       0       0       0       0       0       0       0       0       0
       0       0       0       0       0       0       0       0       0       0
       0       0       0       0       0       0       0       0       0       0
       0       0       0       0       0       0       0       0       0       0
       0       0       0       0       0       0       0       0       0       0
       0       0       0       0       0       0       0       0       0       0
       0       0       0       0       0       0       0       0       0       0
       0       0       0       0       0       0       0       0       0       0
       0       0       0       0       0       0       0       0       0       0
       0       0       0       0       0       0       0       0       0       0
       0       0       0       0       0       0       0       0       0       0
       0       0       0       0       0       0       0       0       0       0
       0       0       0       0       0       0       0       0       0       0
       0       0       0       0       0       0       0       0       0       0
       0       0       0       0       0       0       0       0       0       0
       0       0       0       0       0       0       0       0       0       0
       0       0       0       0       0       0       0       0       0       0
       0       0       0       0       0       0       0       0       0       0
       0       0       0       0       0       0       0       0       0       0
       0       0       0       0       0       0       0       0       0       0
       0       0       0       0       0       0       0       0       0       0
       0       0       0       0       0       0       0       0       0       0
       0       0       0       0       0       0       0       0       0       0
       0       0       0       0       0       0       0       0       0       0
       0       0       0       0       0       0       0       0       0       0
       0       0       0       0       0       0       0       0       0       0
       0       0       0       0       0       0       0       0       0       0
       0       0       0       0       0       0       0       0       0       0
       0       0       0       0       0       0       0       0       0       0
       0       0       0       0       0       0       0       0       0       0
       0       0       0       0       0       0       0       0       0       0
       0       0       0       0       0       0       0       0       0       0
       0       0       0       0       0       0       0       0       0       0
       0       0       0       0       0       0       0       0       0       0
       0       0       0       0       0       0       0       0       0       0
       0       0       0       0       0       0       0       0       0       0
       0       0       0       0       0       0       0       0       0       0
       0       0       0       0       0       0       0       0       0       0
       0       0       0       0       0       0       0       0       0       0
       0       0       0       0       0       0       0       0       0       0
       0       0       0       0       0       0       0       0       0       0
       0       0       0       0       0       0       0       0       0       0
       0       0       0       0       0       0       0       0       0       0
       0       0       0       0       0       0       0       0       0       0
       0       0       0       0       0       0       0       0       0       0
       0       0       0       0       0       0       0       0       0       0
       0       0       0       0       0       0       0       0       0       0
       0       0       0       0       0       0       0       0       0       0
       0       0       0       0       0       0       0       0       0       0
       0       0       0       0       0       0       0       0       0       0
       0       0       0       0       0       0       0       0       0       0
       0       0       0       0       0       0       0       0       0       0
       0       0       0       0       0       0       0       0       0       0
       0       0       0       0       0       0       0       0       0       0
       0       0       0       0       0       0       0       0       0       0
       0       0       0       0       0       0       0       0       0       0
       0       0       0       0       0       0       0       0       0       0
       0       0       0       0       0       0       0       0       0       0
       0       0       0       0       0       0       0       0       0       0
       0       0       0       0       0       0       0       0       0       0
       0       0       0       0       0       0       0       0       0       0
       0       0       0       0       0       0       0       0       0       0
       0       0       0       0       0       0       0       0       0       0
       0       0       0       0       0       0       0       0       0       0
       0       0       0       0       0       0       0       0       0       0
       0       0       0       0       0       0       0       0       0       0
       0       0       0       0       0       0       0       0       0       0
       0       0       0       0       0       0       0       0       0       0
       0       0       0       0       0       0       0       0       0       0
       0       0       0       0       0       0       0       0       0       0
       0       0       0       0       0       0       0       0       0       0
       0       0       0       0       0       0       0       0       0       0
       0       0       0       0       0       0       0       0       0       0
       0       0       0       0       0       0       0       0       0       0
       0       0       0       0       0       0       0       0       0       0
       0       0       0       0       0       0       0       0       0       0
       0       0       0       0       0       0       0       0       0       0
       0       0       0       0       0       0       0       0       0       0
       0       0       0       0       0       0       0       0       0       0
       0       0       0       0       0       0       0       0       0       0
       0       0       0       0       0       0       0       0       0       0
       0       0       0       0       0       0       0       0       0       0
       0       0       0       0       0       0       0       0       0       0
       0       0       0       0       0       0       0       0       0       0
       0       0       0       0       0       0       0       0       0       0
       0       0       0       0       0       0       0       0       0       0
       0       0       0       0       0       0       0       0       0       0
       0       0       0       0       0       0       0       0       0       0
       0       0       0       0       0       0       0       0       0       0
       0       0       0       0       0       0       0       0       0       0
       0       0       0       0       0       0       0       0       0       0
       0       0       0       0       0       0       0       0       0       0
       0       0       0       0       0       0       0       0       0       0
       0       0       0       0       0       0       0       0       0       0
       0       0       0       0       0       0       0       0       0       0
       0       0       0       0       0       0       0       0       0       0
       0       0       0       0       0       0       0       0       0       0
       0       0       0       0       0       0       0       0       0       0
       0       0       0       0       0       0       0       0       0       0
       0       0       0       0       0       0       0       0       0       0
       0       0       0       0       0       0       0       0       0       0
       0       0       0       0       0       0       0       0       0       0
       0       0       0       0       0       0       0       0       0       0
       0       0       0       0       0       0       0       0       0       0
       0       0       0       0       0       0       0       0       0       0
       0       0       0       0       0       0       0       0       0       0
       0       0       0       0       0       0       0       0       0       0
       0       0       0       0       0       0       0       0       0       0
       0       0       0       0       0       0       0       0       0       0
       0       0       0       0       0       0       0       0       0       0
       0       0       0       0       0       0       0       0       0       0
       0       0       0       0       0       0       0       0       0       0
       0       0       0       0       0       0       0       0       0       0
       0       0       0       0       0       0       0       0       0       0
       0       0       0       0       0       0       0       0       0       0
       0       0       0       0       0       0       0       0       0       0
       0       0       0       0       0       0       0       0       0       0
       0       0       0       0       0       0       0       0       0       0
       0       0       0       0       0       0       0       0       0       0
       0       0       0       0       0       0       0       0       0       0
       0       0       0       0       0       0       0       0       0       0
       0       0       0       0       0       0       0       0       0       0
       0       0       0       0       0       0       0       0       0       0
       0       0       0       0       0       0       0       0       0       0
       0       0       0       0       0       0       0       0       0       0
       0       0       0       0       0       0       0       0       0       0
       0       0       0       0       0       0       0       0       0       0
       0       0       0       0       0       0       0       0       0       0
       0       0       0       0       0       0       0       0       0       0
       0       0       0       0       0       0       0       0       0       0
       0       0       0       0       0       0       0       0       0       0
       0       0       0       0       0       0       0       0       0       0
       0       0       0       0       0       0       0       0       0       0
       0       0       0       0       0       0       0       0       0       0
       0       0       0       0       0       0       0       0       0       0
       0       0       0       0       0       0       0       0       0       0
       0       0       0       0       0       0       0       0       0       0
       0       0       0       0       0       0       0       0       0       0
       0       0       0       0       0       0       0       0       0       0
       0       0       0       0       0       0       0       0       0       0
       0       0       0       0       0       0       0       0       0       0
       0       0       0       0       0       0       0       0       0       0
       0       0       0       0       0       0       0       0       0       0
       0       0       0       0       0       0       0       0       0       0
       0       0       0       0       0       0       0       0       0       0
       0       0       0       0       0       0       0       0       0       0
       0       0       0       0       0       0       0       0       0       0
       0       0       0       0       0       0       0       0       0       0
       0       0       0       0       0       0       0       0       0       0
       0       0       0       0       0       0       0       0       0       0
       0       0       0       0       0       0       0       0       0       0
       0       0       0       0       0       0       0       0       0       0
       0       0       0       0       0       0       0       0       0       0
       0       0       0       0       0       0       0       0       0       0
       0       0       0       0       0       0       0       0       0       0
       0       0       0       0       0       0       0       0       0       0
       0       0       0       0       0       0       0       0       0       0
       0       0       0       0       0       0       0       0       0       0
       0       0       0       0       0       0       0       0       0       0
       0       0       0       0       0       0       0       0       0       0
       0       0       0       0       0       0       0       0       0       0
       0       0       0       0       0       0       0       0       0       0
       0       0       0       0       0       0       0       0       0       0
       0       0       0       0       0       0       0       0       0       0
       0       0       0       0       0       0       0       0       0       0
       0       0       0       0       0       0       0       0       0       0
       0       0       0       0       0       0       0       0       0       0
       0       0       0       0       0       0       0       0       0       0
       0       0       0       0       0       0       0       0       0       0
       0       0       0       0       0       0       0       0       0       0
       0       0       0       0       0       0       0       0       0       0
       0       0       0       0       0       0       0       0       0       0
       0       0       0       0       0       0       0       0       0       0
       0       0       0       0       0       0       0       0       0       0
       0       0       0       0       0       0       0       0       0       0
       0       0       0       0       0       0       0       0       0       0
       0       0       0       0       0       0       0       0       0       0
       0       0       0       0       0       0       0       0       0       0
       0       0       0       0       0       0       0       0       0       0
       0       0       0       0       0       0       0       0       0       0
       0       0       0       0       0       0       0       0       0       0
       0       0       0       0       0       0       0       0       0       0
       0       0       0       0       0       0       0       0       0       0
       0       0       0       0       0       0       0       0       0       0
       0       0       0       0       0       0       0       0       0       0
       0       0       0       0       0       0       0       0       0       0
       0       0       0       0       0       0       0       0       0       0
       0       0       0       0       0       0       0       0       0       0
       0       0       0       0       0       0       0       0       0       0
       0       0       0       0       0       0       0       0       0       0
       0       0       0       0       0       0       0       0       0       0
       0       0       0       0       0       0       0       0       0       0
       0       0       0       0       0       0       0       0       0       0
       0       0       0       0       0       0       0       0       0       0
       0       0       0       0       0       0       0       0       0       0
       0       0       0       0       0       0       0       0       0       0
       0       0       0       0       0       0       0       0       0       0
       0       0       0       0       0       0       0       0       0       0
       0       0       0       0       0       0       0       0       0       0
       0       0       0       0       0       0       0       0       0       0
       0       0       0       0       0       0       0       0       0       0
       0       0       0       0       0       0       0       0       0       0
       0       0       0       0       0       0       0       0       0       0
       0       0       0       0       0       0       0       0       0       0
       0       0       0       0       0       0       0       0       0       0
       0       0       0       0       0       0       0       0       0       0
       0       0       0       0       0       0       0       0       0       0
       0       0       0       0       0       0       0       0       0       0
       0       0       0       0       0       0       0       0       0       0
       0       0       0       0       0       0       0       0       0       0
       0       0       0       0       0       0       0       0       0       0
       0       0       0       0       0       0       0       0       0       0
       0       0       0       0       0       0       0       0       0       0
       0       0       0       0       0       0       0       0       0       0
       0       0       0       0       0       0       0       0       0       0
       0       0       0       0       0       0       0       0       0       0
       0       0       0       0       0       0       0       0       0       0
       0       0       0       0       0       0       0       0       0       0
       0       0       0       0       0       0       0       0       0       0
       0       0       0       0       0       0       0       0       0       0
       0       0       0       0       0       0       0       0       0       0
       0       0       0       0       0       0       0       0       0       0
       0       0       0       0       0       0       0       0       0       0
       0       0       0       0       0       0       0       0       0       0
       0       0       0       0       0       0       0       0       0       0
       0       0       0       0       0       0       0       0       0       0
       0       0       0       0       0       0       0       0       0       0
       0       0       0       0       0       0       0       0       0       0
       0       0       0       0       0       0       0       0       0       0
       0       0       0       0       0       0       0       0       0       0
       0       0       0       0       0       0       0       0       0       0
       0       0       0       0       0       0       0       0       0       0
       0       0       0       0       0       0       0       0       0       0
       0       0       0       0       0       0       0       0       0       0
       0       0       0       0       0       0       0       0       0       0
       0       0       0       0       0       0       0       0       0       0
       0       0       0       0       0       0       0       0       0       0
       0       0       0       0       0       0       0       0       0       0
       0       0       0       0       0       0       0       0       0       0
       0       0       0       0       0       0       0       0       0       0
       0       0       0       0       0       0       0       0       0       0
       0       0       0       0       0       0       0       0       0       0
       0       0       0       0       0       0       0       0       0       0
       0       0       0       0       0       0       0       0       0       0
       0       0       0       0       0       0       0       0       0       0
       0       0       0       0       0       0       0       0       0       0
       0       0       0       0       0       0       0       0       0       0
       0       0       0       0       0       0       0       0       0       0
       0       0       0       0       0       0       0       0       0       0
       0       0       0       0       0       0       0       0       0       0
       0       0       0       0       0       0       0       0       0       0
       0       0       0       0       0       0       0       0       0       0
       0       0       0       0       0       0       0       0       0       0
       0       0       0       0       0       0       0       0       0       0
       0       0       0       0       0       0       0       0       0       0
       0       0       0       0       0       0       0       0       0       0
       0       0       0       0       0       0       0       0       0       0
       0       0       0       0       0       0       0       0       0       0
       0       0       0       0       0       0       0       0       0       0
       0       0       0       0       0       0       0       0       0       0
       0       0       0       0       0       0       0       0       0       0
       0       0       0       0       0       0       0       0       0       0
       0       0       0       0       0       0       0       0       0       0
       0       0       0       0       0       0       0       0       0       0
       0       0       0       0       0       0       0       0       0       0
       0       0       0       0       0       0       0       0       0       0
       0       0       0       0       0       0       0       0       0       0
       0       0       0       0       0       0       0       0       0       0
       0       0       0       0       0       0       0       0       0       0
       0       0       0       0       0       0       0       0       0       0
       0       0       0       0       0       0       0       0       0       0
       0       0       0       0       0       0       0       0       0       0
       0       0       0       0       0       0       0       0       0       0
       0       0       0       0       0       0       0       0       0       0
       0       0       0       0       0       0       0       0       0       0
       0       0       0       0       0       0       0       0       0       0
       0       0       0       0       0       0       0       0       0       0
       0       0       0       0       0       0       0       0       0       0
       0       0       0       0       0       0       0       0       0       0
       0       0       0       0       0       0       0       0       0       0
       0       0       0       0       0       0       0       0       0       0
       0       0       0       0       0       0       0       0       0       0
       0       0       0       0       0       0       0       0       0       0
       0       0       0       0       0       0       0       0       0       0
       0       0       0       0       0       0       0       0       0       0
       0       0       0       0       0       0       0       0       0       0
       0       0       0       0       0       0       0       0       0       0
       0       0       0       0       0       0       0       0       0       0
       0       0       0       0       0       0       0       0       0       0
       0       0       0       0       0       0       0       0       0       0
       0       0       0       0       0       0       0       0       0       0
       0       0       0       0       0       0       0       0       0       0
       0       0       0       0       0       0       0       0       0       0
       0       0       0       0       0       0       0       0       0       0
       0       0       0       0       0       0       0       0       0       0
       0       0       0       0       0       0       0       0       0       0
       0       0       0       0       0       0       0       0       0       0
       0       0       0       0       0       0       0       0       0       0
       0       0       0       0       0       0       0       0       0       0
       0       0       0       0       0       0       0       0       0       0
       0       0       0       0       0       0       0       0       0       0
       0       0       0       0       0       0       0       0       0       0
       0       0       0       0       0       0       0       0       0       0
       0       0       0       0       0       0       0       0       0       0
       0       0       0       0       0       0       0       0       0       0
       0       0       0       0       0       0       0       0       0       0
       0       0       0       0       0       0       0       0       0       0
       0       0       0       0       0       0       0       0       0       0
       0       0       0       0       0       0       0       0       0       0
       0       0       0       0       0       0       0       0       0       0
       0       0       0       0       0       0       0       0       0       0
       0       0       0       0       0       0       0       0       0       0
       0       0       0       0       0       0       0       0       0       0
       0       0       0       0       0       0       0       0       0       0
       0       0       0       0       0       0       0       0       0       0
       0       0       0       0       0       0       0       0       0       0
       0       0       0       0       0       0       0       0       0       0
       0       0       0       0       0       0       0       0       0       0
       0       0       0       0       0       0       0       0       0       0
       0       0       0       0       0       0       0       0       0       0
       0       0       0       0       0       0       0       0       0       0
       0       0       0       0       0       0       0       0       0       0
       0       0       0       0       0       0       0       0       0       0
       0       0       0       0       0       0       0       0       0       0
       0       0       0       0       0       0       0       0       0       0
       0       0       0       0       0       0       0       0       0       0
       0       0       0       0       0       0       0       0       0       0
       0       0       0       0       0       0       0       0       0       0
       0       0       0       0       0       0       0       0       0       0
       0       0       0       0       0       0       0       0       0       0
       0       0       0       0       0       0       0       0       0       0
       0       0       0       0       0       0       0       0       0       0
       0       0       0       0       0       0       0       0       0       0
       0       0       0       0       0       0       0       0       0       0
       0       0       0       0       0       0       0       0       0       0
       0       0       0       0       0       0       0       0       0       0
       0       0       0       0       0       0       0       0       0       0
       0       0       0       0       0       0       0       0       0       0
       0       0       0       0       0       0       0       0       0       0
       0       0       0       0       0       0       0       0       0       0
       0       0       0       0       0       0       0       0       0       0
       0       0       0       0       0       0       0       0       0       0
       0       0       0       0       0       0       0       0       0       0
       0       0       0       0       0       0       0       0       0       0
       0       0       0       0       0       0       0       0       0       0
       0       0       0       0       0       0       0       0       0       0
       0       0       0       0       0       0       0       0       0       0
       0       0       0       0       0       0       0       0       0       0
       0       0       0       0       0       0       0       0       0       0
       0       0       0       0       0       0       0       0       0       0
       0       0       0       0       0       0       0       0       0       0
       0       0       0       0       0       0       0       0       0       0
       0       0       0       0       0       0       0       0       0       0
       0       0       0       0       0       0       0       0       0       0
       0       0       0       0       0       0       0       0       0       0
       0       0       0       0       0       0       0       0       0       0
       0       0       0       0       0       0       0       0       0       0
       0       0       0       0       0       0       0       0       0       0
       0       0       0       0       0       0       0       0       0       0
       0       0       0       0       0       0       0       0       0       0
       0       0       0       0       0       0       0       0       0       0
       0       0       0       0       0       0       0       0       0       0
       0       0       0       0       0       0       0       0       0       0
       0       0       0       0       0       0       0       0       0       0
       0       0       0       0       0       0       0       0       0       0
       0       0       0       0       0       0       0       0       0       0
       0       0       0       0       0       0       0       0       0       0
       0       0       0       0       0       0       0       0       0       0
       0       0       0       0       0       0       0       0       0       0
       0       0       0       0       0       0       0       0       0       0
       0       0       0       0       0       0       0       0       0       0
       0       0       0       0       0       0       0       0       0       0
       0       0       0       0       0       0       0       0       0       0
       0       0       0       0       0       0       0       0       0       0
       0       0       0       0       0       0       0       0       0       0
       0       0       0       0       0       0       0       0       0       0
       0       0       0       0       0       0       0       0       0       0
       0       0       0       0       0       0       0       0       0       0
       0       0       0       0       0       0       0       0       0       0
       0       0       0       0       0       0       0       0       0       0
       0       0       0       0       0       0       0       0       0       0
       0       0       0       0       0       0       0       0       0       0
       0       0       0       0       0       0       0       0       0       0
       0       0       0       0       0       0       0       0       0       0
       0       0       0       0       0       0       0       0       0       0
       0       0       0       0       0       0       0       0       0       0
       0       0       0       0       0       0       0       0       0       0
       0       0       0       0       0       0       0       0       0       0
       0       0       0       0       0       0       0       0       0       0
       0       0       0       0       0       0       0       0       0       0
       0       0       0       0       0       0       0       0       0       0
       0       0       0       0       0       0       0       0       0       0
       0       0       0       0       0       0       0       0       0       0
       0       0       0       0       0       0       0       0       0       0
       0       0       0       0       0       0       0       0       0       0
       0       0       0       0       0       0       0       0       0       0
       0       0       0       0       0       0       0       0       0       0
       0       0       0       0       0       0       0       0       0       0
       0       0       0       0       0       0       0       0       0       0
       0       0       0       0       0       0       0       0       0       0
       0       0       0       0       0       0       0       0       0       0
       0       0       0       0       0       0       0       0       0       0
       0       0       0       0       0       0       0       0       0       0
       0       0       0       0       0       0       0       0       0       0
       0       0       0       0       0       0       0       0       0       0
       0       0       0       0       0       0       0       0       0       0
       0       0       0       0       0       0       0       0       0       0
       0       0       0       0       0       0       0       0       0       0
       0       0       0       0       0       0       0       0       0       0
       0       0       0       0       0       0       0       0       0       0
       0       0       0       0       0       0       0       0       0       0
       0       0       0       0       0       0       0       0       0       0
       0       0       0       0       0       0       0       0       0       0
       0       0       0       0       0       0       0       0       0       0
       0       0       0       0       0       0       0       0       0       0
       0       0       0       0       0       0       0       0       0       0
       0       0       0       0       0       0       0       0       0       0
       0       0       0       0       0       0       0       0       0       0
       0       0       0       0       0       0       0       0       0       0
       0       0       0       0       0       0       0       0       0       0
       0       0       0       0       0       0       0       0       0       0
       0       0       0       0       0       0       0       0       0       0
       0       0       0       0       0       0       0       0       0       0
       0       0       0       0       0       0       0       0       0       0
       0       0       0       0       0       0       0       0       0       0
       0       0       0       0       0       0       0       0       0       0
       0       0       0       0       0       0       0       0       0       0
       0       0       0       0       0       0       0       0       0       0
       0       0       0       0       0       0       0       0       0       0
       0       0       0       0       0       0       0       0       0       0
       0       0       0       0       0       0       0       0       0       0
       0       0       0       0       0       0       0       0       0       0
       0       0       0       0       0       0       0       0       0       0
       0       0       0       0       0       0       0       0       0       0
       0       0       0       0       0       0       0       0       0       0
       0       0       0       0       0       0       0       0       0       0
       0       0       0       0       0       0       0       0       0       0
       0       0       0       0       0       0       0       0       0       0
       0       0       0       0       0       0       0       0       0       0
       0       0       0       0       0       0       0       0       0       0
       0       0       0       0       0       0       0       0       0       0
       0       0       0       0       0       0       0       0       0       0
       0       0       0       0       0       0       0       0       0       0
       0       0       0       0       0       0       0       0       0       0
       0       0       0       0       0       0       0       0       0       0
       0       0       0       0       0       0       0       0       0       0
       0       0       0       0       0       0       0       0       0       0
       0       0       0       0       0       0       0       0       0       0
       0       0       0       0       0       0       0       0       0       0
       0       0       0       0       0       0       0       0       0       0
       0       0       0       0       0       0       0       0       0       0
       0       0       0       0       0       0       0       0       0       0
       0       0       0       0       0       0       0       0       0       0
       0       0       0       0       0       0       0       0       0       0
       0       0       0       0       0       0       0       0       0       0
       0       0       0       0       0       0       0       0       0       0
       0       0       0       0       0       0       0       0       0       0
       0       0       0       0       0       0       0       0       0       0
       0       0       0       0       0       0       0       0       0       0
       0       0       0       0       0       0       0       0       0       0
       0       0       0       0       0       0       0       0       0       0
       0       0       0       0       0       0       0       0       0       0
       0       0       0       0       0       0       0       0       0       0
       0       0       0       0       0       0       0       0       0       0
       0       0       0       0       0       0       0       0       0       0
       0       0       0       0       0       0       0       0       0       0
       0       0       0       0       0       0       0       0       0       0
       0       0       0       0       0       0       0       0       0       0
       0       0       0       0       0       0       0       0       0       0
       0       0       0       0       0       0       0       0       0       0
       0       0       0       0       0       0       0       0       0       0
       0       0       0       0       0       0       0       0       0       0
       0       0       0       0       0       0       0       0       0       0
       0       0       0       0       0       0       0       0       0       0
       0       0       0       0       0       0       0       0       0       0
       0       0       0       0       0       0       0       0       0       0
       0       0       0       0       0       0       0       0       0       0
       0       0       0       0       0       0       0       0       0       0
       0       0       0       0       0       0       0       0       0       0
       0       0       0       0       0       0       0       0       0       0
       0       0       0       0       0       0       0       0       0       0
       0       0       0       0       0       0       0       0       0       0
       0       0       0       0       0       0       0       0       0       0
       0       0       0       0       0       0       0       0       0       0
       0       0       0       0       0       0       0       0       0       0
       0       0       0       0       0       0       0       0       0       0
       0       0       0       0       0       0       0       0       0       0
       0       0       0       0       0       0       0       0       0       0
       0       0       0       0       0       0       0       0       0       0
       0       0       0       0       0       0       0       0       0       0
       0       0       0       0       0       0       0       0       0       0
       0       0       0       0       0       0       0       0       0       0
       0       0       0       0       0       0       0       0       0       0
       0       0       0       0       0       0       0       0       0       0
       0       0       0       0       0       0       0       0       0       0
       0       0       0       0       0       0       0       0       0       0
       0       0       0       0       0       0       0       0       0       0
       0       0       0       0       0       0       0       0       0       0
       0       0       0       0       0       0       0       0       0       0
       0       0       0       0       0       0       0       0       0       0
       0       0       0       0       0       0       0       0       0       0
       0       0       0       0       0       0       0       0       0       0
       0       0       0       0       0       0       0       0       0       0
       0       0       0       0       0       0       0       0       0       0
       0       0       0       0       0       0       0       0       0       0
       0       0       0       0       0       0       0       0       0       0
       0       0       0       0       0       0       0       0       0       0
       0       0       0       0       0       0       0       0       0       0
       0       0       0       0       0       0       0       0       0       0
       0       0       0       0       0       0       0       0       0       0
       0       0       0       0       0       0       0       0       0       0
       0       0       0       0       0       0       0       0       0       0
       0       0       0       0       0       0       0       0       0       0
       0       0       0       0       0       0       0       0       0       0
       0       0       0       0       0       0       0       0       0       0
       0       0       0       0       0       0       0       0       0       0
       0       0       0       0       0       0       0       0       0       0
       0       0       0       0       0       0       0       0       0       0
       0       0       0       0       0       0       0       0       0       0
       0       0       0       0       0       0       0       0       0       0
       0       0       0       0       0       0       0       0       0       0
       0       0       0       0       0       0       0       0       0       0
       0       0       0       0       0       0       0       0       0       0
       0       0       0       0       0       0       0       0       0       0
       0       0       0       0       0       0       0       0       0       0
       0       0       0       0       0       0       0       0       0       0
       0       0       0       0       0       0       0       0       0       0
       0       0       0       0       0       0       0       0       0       0
       0       0       0       0       0       0       0       0       0       0
       0       0       0       0       0       0       0       0       0       0
       0       0       0       0       0       0       0       0       0       0
       0       0       0       0       0       0       0       0       0       0
       0       0       0       0       0       0       0       0       0       0
       0       0       0       0       0       0       0       0       0       0
       0       0       0       0       0       0       0       0       0       0
       0       0       0       0       0       0       0       0       0       0
       0       0       0       0       0       0       0       0       0       0
       0       0       0       0       0       0       0       0       0       0
       0       0       0       0       0       0       0       0       0       0
       0       0       0       0       0       0       0       0       0       0
       0       0       0       0       0       0       0       0       0       0
       0       0       0       0       0       0       0       0       0       0
       0       0       0       0       0       0       0       0       0       0
       0       0       0       0       0       0       0       0       0       0
       0       0       0       0       0       0       0       0       0       0
       0       0       0       0       0       0       0       0       0       0
       0       0       0       0       0       0       0       0       0       0
       0       0       0       0       0       0       0       0       0       0
       0       0       0       0       0       0       0       0       0       0
       0       0       0       0       0       0       0       0       0       0
       0       0       0       0       0       0       0       0       0       0
       0       0       0       0       0       0       0       0       0       0
       0       0       0       0       0       0       0       0       0       0
       0       0       0       0       0       0       0       0       0       0
       0       0       0       0       0       0       0       0       0       0
       0       0       0       0       0       0       0       0       0       0
       0       0       0       0       0       0       0       0       0       0
       0       0       0       0       0       0       0       0       0       0
       0       0       0       0       0       0       0       0       0       0
       0       0       0       0       0       0       0       0       0       0
       0       0       0       0       0       0       0       0       0       0
       0       0       0       0       0       0       0       0       0       0
       0       0       0       0       0       0       0       0       0       0
       0       0       0       0       0       0       0       0       0       0
       0       0       0       0       0       0       0       0       0       0
       0       0       0       0       0       0       0       0       0       0
       0       0       0       0       0       0       0       0       0       0
       0       0       0       0       0       0       0       0       0       0
       0       0       0       0       0       0       0       0       0       0
       0       0       0       0       0       0       0       0       0       0
       0       0       0       0       0       0       0       0       0       0
       0       0       0       0       0       0       0       0       0       0
       0       0       0       0       0       0       0       0       0       0
       0       0       0       0       0       0       0       0       0       0
       0       0       0       0       0       0       0       0       0       0
       0       0       0       0       0       0       0       0       0       0
       0       0       0       0       0       0       0       0       0       0
       0       0       0       0       0       0       0       0       0       0
       0       0       0       0       0       0       0       0       0       0
       0       0       0       0       0       0       0       0       0       0
       0       0       0       0       0       0       0       0       0       0
       0       0       0       0       0       0       0       0       0       0
       0       0       0       0       0       0       0       0       0       0
       0       0       0       0       0       0       0       0       0       0
       0       0       0       0       0       0       0       0       0       0
       0       0       0       0       0       0       0       0       0       0
       0       0       0       0       0       0       0       0       0       0
       0       0       0       0       0       0       0       0       0       0
       0       0       0       0       0       0       0       0       0       0
       0       0       0       0       0       0       0       0       0       0
       0       0       0       0       0       0       0       0       0       0
       0       0       0       0       0       0       0       0       0       0
       0       0       0       0       0       0       0       0       0       0
       0       0       0       0       0       0       0       0       0       0
       0       0       0       0       0       0       0       0       0       0
       0       0       0       0       0       0       0       0       0       0
       0       0       0       0       0       0       0       0       0       0
       0       0       0       0       0       0       0       0       0       0
       0       0       0       0       0       0       0       0       0       0
       0       0       0       0       0       0       0       0       0       0
       0       0       0       0       0       0       0       0       0       0
       0       0       0       0       0       0       0       0       0       0
       0       0       0       0       0       0       0       0       0       0
       0       0       0       0       0       0       0       0       0       0
       0       0       0       0       0       0       0       0       0       0
       0       0       0       0       0       0       0       0       0       0
       0       0       0       0       0       0       0       0       0       0
       0       0       0       0       0       0       0       0       0       0
       0       0       0       0       0       0       0       0       0       0
       0       0       0       0       0       0       0       0       0       0
       0       0       0       0       0       0       0       0       0       0
       0       0       0       0       0       0       0       0       0       0
       0       0       0       0       0       0       0       0       0       0
       0       0       0       0       0       0       0       0       0       0
       0       0       0       0       0       0       0       0       0       0
       0       0       0       0       0       0       0       0       0       0
       0       0       0       0       0       0       0       0       0       0
       0       0       0       0       0       0       0       0       0       0
       0       0       0       0       0       0       0       0       0       0
       0       0       0       0       0       0       0       0       0       0
       0       0       0       0       0       0       0       0       0       0
       0       0       0       0       0       0       0       0       0       0
       0       0       0       0       0       0       0       0       0       0
       0       0       0       0       0       0       0       0       0       0
       0       0       0       0       0       0       0       0       0       0
       0       0       0       0       0       0       0       0       0       0
       0       0       0       0       0       0       0       0       0       0
       0       0       0       0       0       0       0       0       0       0
       0       0       0       0       0       0       0       0       0       0
       0       0       0       0       0       0       0       0       0       0
       0       0       0       0       0       0       0       0       0       0
       0       0       0       0       0       0       0       0       0       0
       0       0       0       0       0       0       0       0       0       0
       0       0       0       0       0       0       0       0       0       0
       0       0       0       0       0       0       0       0       0       0
       0       0       0       0       0       0       0       0       0       0
       0       0       0       0       0       0       0       0       0       0
       0       0       0       0       0       0       0       0       0       0
       0       0       0       0       0       0       0       0       0       0
       0       0       0       0       0       0       0       0       0       0
       0       0       0       0       0       0       0       0       0       0
       0       0       0       0       0       0       0       0       0       0
       0       0       0       0       0       0       0       0       0       0
       0       0       0       0       0       0       0       0       0       0
       0       0       0       0       0       0       0       0       0       0
       0       0       0       0       0       0       0       0       0       0
       0       0       0       0       0       0       0       0       0       0
       0       0       0       0       0       0       0       0       0       0
       0       0       0       0       0       0       0       0       0       0
       0       0       0       0       0       0       0       0       0       0
       0       0       0       0       0       0       0       0       0       0
       0       0       0       0       0       0       0       0       0       0
       0       0       0       0       0       0       0       0       0       0
       0       0       0       0       0       0       0       0       0       0
       0       0       0       0       0       0       0       0       0       0
       0       0       0       0       0       0       0       0       0       0
       0       0       0       0       0       0       0       0       0       0
       0       0       0       0       0       0       0       0       0       0
       0       0       0       0       0       0       0       0       0       0
       0       0       0       0       0       0       0       0       0       0
       0       0       0       0       0       0       0       0       0       0
       0       0       0       0       0       0       0       0       0       0
       0       0       0       0       0       0       0       0       0       0
       0       0       0       0       0       0       0       0       0       0
       0       0       0       0       0       0       0       0       0       0
       0       0       0       0       0       0       0       0       0       0
       0       0       0       0       0       0       0       0       0       0
       0       0       0       0       0       0       0       0       0       0
       0       0       0       0       0       0       0       0       0       0
       0       0       0       0       0       0       0       0       0       0
       0       0       0       0       0       0       0       0       0       0
       0       0       0       0       0       0       0       0       0       0
       0       0       0       0       0       0       0       0       0       0
       0       0       0       0       0       0       0       0       0       0
       0       0       0       0       0       0       0       0       0       0
       0       0       0       0       0       0       0       0       0       0
       0       0       0       0       0       0       0       0       0       0
       0       0       0       0       0       0       0       0       0       0
       0       0       0       0       0       0       0       0       0       0
       0       0       0       0       0       0       0       0       0       0
       0       0       0       0       0       0       0       0       0       0
       0       0       0       0       0       0       0       0       0       0
       0       0       0       0       0       0       0       0       0       0
       0       0       0       0       0       0       0       0       0       0
       0       0       0       0       0       0       0       0       0       0
       0       0       0       0       0       0       0       0       0       0
       0       0       0       0       0       0       0       0       0       0
       0       0       0       0       0       0       0       0       0       0
       0       0       0       0       0       0       0       0       0       0
       0       0       0       0       0       0       0       0       0       0
       0       0       0       0       0       0       0       0       0       0
       0       0       0       0       0       0       0       0       0       0
       0       0       0       0       0       0       0       0       0       0
       0       0       0       0       0       0       0       0       0       0
       0       0       0       0       0       0       0       0       0       0
       0       0       0       0       0       0       0       0       0       0
       0       0       0       0       0       0       0       0       0       0
       0       0       0       0       0       0       0       0       0       0
       0       0       0       0       0       0       0       0       0       0
       0       0       0       0       0       0       0       0       0       0
       0       0       0       0       0       0       0       0       0       0
       0       0       0       0       0       0       0       0       0       0
       0       0       0       0       0       0       0       0       0       0
       0       0       0       0       0       0       0       0       0       0
       0       0       0       0       0       0       0       0       0       0
       0       0       0       0       0       0       0       0       0       0
       0       0       0       0       0       0       0       0       0       0
       0       0       0       0       0       0       0       0       0       0
       0       0       0       0       0       0       0       0       0       0
       0       0       0       0       0       0       0       0       0       0
       0       0       0       0       0       0       0       0       0       0
       0       0       0       0       0       0       0       0       0       0
       0       0       0       0       0       0       0       0       0       0
       0       0       0       0       0       0       0       0       0       0
       0       0       0       0       0       0       0       0       0       0
       0       0       0       0       0       0       0       0       0       0
       0       0       0       0       0       0       0       0       0       0
       0       0       0       0       0       0       0       0       0       0
       0       0       0       0       0       0       0       0       0       0
       0       0       0       0       0       0       0       0       0       0
       0       0       0       0       0       0       0       0       0       0
       0       0       0       0       0       0       0       0       0       0
       0       0       0       0       0       0       0       0       0       0
       0       0       0       0       0       0       0       0       0       0
       0       0       0       0       0       0       0       0       0       0
       0       0       0       0       0       0       0       0       0       0
       0       0       0       0       0       0       0       0       0       0
       0       0       0       0       0       0       0       0       0       0
       0       0       0       0       0       0       0       0       0       0
       0       0       0       0       0       0       0       0       0       0
       0       0       0       0       0       0       0       0       0       0
       0       0       0       0       0       0       0       0       0       0
       0       0       0       0       0       0       0       0       0       0
       0       0       0       0       0       0       0       0       0       0
       0       0       0       0       0       0       0       0       0       0
       0       0       0       0       0       0       0       0       0       0
       0       0       0       0       0       0       0       0       0       0
       0       0       0       0       0       0       0       0       0       0
       0       0       0       0       0       0       0       0       0       0
       0       0       0       0       0       0       0       0       0       0
       0       0       0       0       0       0       0       0       0       0
       0       0       0       0       0       0       0       0       0       0
       0       0       0       0       0       0       0       0       0       0
       0       0       0       0       0       0       0       0       0       0
       0       0       0       0       0       0       0       0       0       0
       0       0       0       0       0       0       0       0       0       0
       0       0       0       0       0       0       0       0       0       0
       0       0       0       0       0       0       0       0       0       0
       0       0       0       0       0       0       0       0       0       0
       0       0       0       0       0       0       0       0       0       0
       0       0       0       0       0       0       0       0       0       0
       0       0       0       0       0       0       0       0       0       0
       0       0       0       0       0       0       0       0       0       0
       0       0       0       0       0       0       0       0       0       0
       0       0       0       0       0       0       0       0       0       0
       0       0       0       0       0       0       0       0       0       0
       0       0       0       0       0       0       0       0       0       0
       0       0       0       0       0       0       0       0       0       0
       0       0       0       0       0       0       0       0       0       0
       0       0       0       0       0       0       0       0       0       0
       0       0       0       0       0       0       0       0       0       0
       0       0       0       0       0       0       0       0       0       0
       0       0       0       0       0       0       0       0       0       0
       0       0       0       0       0       0       0       0       0       0
       0       0       0       0       0       0       0       0       0       0
       0       0       0       0       0       0       0       0       0       0
       0       0       0       0       0       0       0       0       0       0
       0       0       0       0       0       0       0       0       0       0
       0       0       0       0       0       0       0       0       0       0
       0       0       0       0       0       0       0       0       0       0
       0       0       0       0       0       0       0       0       0       0
       0       0       0       0       0       0       0       0       0       0
       0       0       0       0       0       0       0       0       0       0
       0       0       0       0       0       0       0       0       0       0
       0       0       0       0       0       0       0       0       0       0
       0       0       0       0       0       0       0       0       0       0
       0       0       0       0       0       0       0       0       0       0
       0       0       0       0       0       0       0       0       0       0
       0       0       0       0       0       0       0       0       0       0
       0       0       0       0       0       0       0       0       0       0
       0       0       0       0       0       0       0       0       0       0
       0       0       0       0       0       0       0       0       0       0
       0       0       0       0       0       0       0       0       0       0
       0       0       0       0       0       0       0       0       0       0
       0       0       0       0       0       0       0       0       0       0
       0       0       0       0       0       0       0       0       0       0
       0       0       0       0       0       0       0       0       0       0
       0       0       0       0       0       0       0       0       0       0
       0       0       0       0       0       0       0       0       0       0
       0       0       0       0       0       0       0       0       0       0
       0       0       0       0       0       0       0       0       0       0
       0       0       0       0       0       0       0       0       0       0
       0       0       0       0       0       0       0       0       0       0
       0       0       0       0       0       0       0       0       0       0
       0       0       0       0       0       0       0       0       0       0
       0       0       0       0       0       0       0       0       0       0
       0       0       0       0       0       0       0       0       0       0
       0       0       0       0       0       0       0       0       0       0
       0       0       0       0       0       0       0       0       0       0
       0       0       0       0       0       0       0       0       0       0
       0       0       0       0       0       0       0       0       0       0
       0       0       0       0       0       0       0       0       0       0
       0       0       0       0       0       0       0       0       0       0
       0       0       0       0       0       0       0       0       0       0
       0       0       0       0       0       0       0       0       0       0
       0       0       0       0       0       0       0       0       0       0
       0       0       0       0       0       0       0       0       0       0
       0       0       0       0       0       0       0       0       0       0
       0       0       0       0       0       0       0       0       0       0
       0       0       0       0       0       0       0       0       0       0
       0       0       0       0       0       0       0       0       0       0
       0       0       0       0       0       0       0       0       0       0
       0       0       0       0       0       0       0       0       0       0
       0       0       0       0       0       0       0       0       0       0
       0       0       0       0       0       0       0       0       0       0
       0       0       0       0       0       0       0       0       0       0
       0       0       0       0       0       0       0       0       0       0
       0       0       0       0       0       0       0       0       0       0
       0       0       0       0       0       0       0       0       0       0
       0       0       0       0       0       0       0       0       0       0
       0       0       0       0       0       0       0       0       0       0
       0       0       0       0       0       0       0       0       0       0
       0       0       0       0       0       0       0       0       0       0
       0       0       0       0       0       0       0       0       0       0
       0       0       0       0       0       0       0       0       0       0
       0       0       0       0       0       0       0       0       0       0
       0       0       0       0       0       0       0       0       0       0
       0       0       0       0       0       0       0       0       0       0
       0       0       0       0       0       0       0       0       0       0
       0       0       0       0       0       0       0       0       0       0
       0       0       0       0       0       0       0       0       0       0
       0       0       0       0       0       0       0       0       0       0
       0       0       0       0       0       0       0       0       0       0
       0       0       0       0       0       0       0       0       0       0
       0       0       0       0       0       0       0       0       0       0
       0       0       0       0       0       0       0       0       0       0
       0       0       0       0       0       0       0       0       0       0
       0       0       0       0       0       0       0       0       0       0
       0       0       0       0       0       0       0       0       0       0
       0       0       0       0       0       0       0       0       0       0
       0       0       0       0       0       0       0       0       0       0
       0       0       0       0       0       0       0       0       0       0
       0       0       0       0       0       0       0       0       0       0
       0       0       0       0       0       0       0       0       0       0
       0       0       0       0       0       0       0       0       0       0
       0       0       0       0       0       0       0       0       0       0
       0       0       0       0       0       0       0       0       0       0
       0       0       0       0       0       0       0       0       0       0
       0       0       0       0       0       0       0       0       0       0
       0       0       0       0       0       0       0       0       0       0
       0       0       0       0       0       0       0       0       0       0
       0       0       0       0       0       0       0       0       0       0
       0       0       0       0       0       0       0       0       0       0
       0       0       0       0       0       0       0       0       0       0
       0       0       0       0       0       0       0       0       0       0
       0       0       0       0       0       0       0       0       0       0
       0       0       0       0       0       0       0       0       0       0
       0       0       0       0       0       0       0       0       0       0
       0       0       0       0       0       0       0       0       0       0
       0       0       0       0       0       0       0       0       0       0
       0       0       0       0       0       0       0       0       0       0
       0       0       0       0       0       0       0       0       0       0
       0       0       0       0       0       0       0       0       0       0
       0       0       0       0       0       0       0       0       0       0
       0       0       0       0       0       0       0       0       0       0
       0       0       0       0       0       0       0       0       0       0
       0       0       0       0       0       0       0       0       0       0
       0       0       0       0       0       0       0       0       0       0
       0       0       0       0       0       0       0       0       0       0
       0       0       0       0       0       0       0       0       0       0
       0       0       0       0       0       0       0       0       0       0
       0       0       0       0       0       0       0       0       0       0
       0       0       0       0       0       0       0       0       0       0
       0       0       0       0       0       0       0       0       0       0
       0       0       0       0       0       0       0       0       0       0
       0       0       0       0       0       0       0       0       0       0
       0       0       0       0       0       0       0       0       0       0
       0       0       0       0       0       0       0       0       0       0
       0       0       0       0       0       0       0       0       0       0
       0       0       0       0       0       0       0       0       0       0
       0       0       0       0       0       0       0       0       0       0
       0       0       0       0       0       0       0       0       0       0
       0       0       0       0       0       0       0       0       0       0
       0       0       0       0       0       0       0       0       0       0
       0       0       0       0       0       0       0       0       0       0
       0       0       0       0       0       0       0       0       0       0
       0       0       0       0       0       0       0       0       0       0
       0       0       0       0       0       0       0       0       0       0
       0       0       0       0       0       0       0       0       0       0
       0       0       0       0       0       0       0       0       0       0
       0       0       0       0       0       0       0       0       0       0
       0       0       0       0       0       0       0       0       0       0
       0       0       0       0       0       0       0       0       0       0
       0       0       0       0       0       0       0       0       0       0
       0       0       0       0       0       0       0       0       0       0
       0       0       0       0       0       0       0       0       0       0
       0       0       0       0       0       0       0       0       0       0
       0       0       0       0       0       0       0       0       0       0
       0       0       0       0       0       0       0       0       0       0
       0       0       0       0       0       0       0       0       0       0
       0       0       0       0       0       0       0       0       0       0
       0       0       0       0       0       0       0       0       0       0
       0       0       0       0       0       0       0       0       0       0
       0       0       0       0       0       0       0       0       0       0
       0       0       0       0       0       0       0       0       0       0
       0       0       0       0       0       0       0       0       0       0
       0       0       0       0       0       0       0       0       0       0
       0       0       0       0       0       0       0       0       0       0
       0       0       0       0       0       0       0       0       0       0
       0       0       0       0       0       0       0       0       0       0
       0       0       0       0       0       0       0       0       0       0
       0       0       0       0       0       0       0       0       0       0
       0       0       0       0       0       0       0       0       0       0
       0       0       0       0       0       0       0       0       0       0
       0       0       0       0       0       0       0       0       0       0
       0       0       0       0       0       0       0       0       0       0
       0       0       0       0       0       0       0       0       0       0
       0       0       0       0       0       0       0       0       0       0
       0       0       0       0       0       0       0       0       0       0
       0       0       0       0       0       0       0       0       0       0
       0       0       0       0       0       0       0       0       0       0
       0       0       0       0       0       0       0       0       0       0
       0       0       0       0       0       0       0       0       0       0
       0       0       0       0       0       0       0       0       0       0
       0       0       0       0       0       0       0       0       0       0
       0       0       0       0       0       0       0       0       0       0
       0       0       0       0       0       0       0       0       0       0
       0       0       0       0       0       0       0       0       0       0
       0       0       0       0       0       0       0       0       0       0
       0       0       0       0       0       0       0       0       0       0
       0       0       0       0       0       0       0       0       0       0
       0       0       0       0       0       0       0       0       0       0
       0       0       0       0       0       0       0       0       0       0
       0       0       0       0       0       0       0       0       0       0
       0       0       0       0       0       0       0       0       0       0
       0       0       0       0       0       0       0       0       0       0
       0       0       0       0       0       0       0       0       0       0
       0       0       0       0       0       0       0       0       0       0
       0       0       0       0       0       0       0       0       0       0
       0       0       0       0       0       0       0       0       0       0
       0       0       0       0       0       0       0       0       0       0
       0       0       0       0       0       0       0       0       0       0
       0       0       0       0       0       0       0       0       0       0
       0       0       0       0       0       0       0       0       0       0
       0       0       0       0       0       0       0       0       0       0
       0       0       0       0       0       0       0       0       0       0
       0       0       0       0       0       0       0       0       0       0
       0       0       0       0       0       0       0       0       0       0
       0       0       0       0       0       0       0       0       0       0
       0       0       0       0       0       0       0       0       0       0
       0       0       0       0       0       0       0       0       0       0
       0       0       0       0       0       0       0       0       0       0
       0       0       0       0       0       0       0       0       0       0
       0       0       0       0       0       0       0       0       0       0
       0       0       0       0       0       0       0       0       0       0
       0       0       0       0       0       0       0       0       0       0
       0       0       0       0       0       0       0       0       0       0
       0       0       0       0       0       0       0       0       0       0
       0       0       0       0       0       0       0       0       0       0
       0       0       0       0       0       0       0       0       0       0
       0       0       0       0       0       0       0       0       0       0
       0       0       0       0       0       0       0       0       0       0
       0       0       0       0       0       0       0       0       0       0
       0       0       0       0       0       0       0       0       0       0
       0       0       0       0       0       0       0       0       0       0
       0       0       0       0       0       0       0       0       0       0
       0       0       0       0       0       0       0       0       0       0
       0       0       0       0       0       0       0       0       0       0
       0       0       0       0       0       0       0       0       0       0
       0       0       0       0       0       0       0       0       0       0
       0       0       0       0       0       0       0       0       0       0
       0       0       0       0       0       0       0       0       0       0
       0       0       0       0       0       0       0       0       0       0
       0       0       0       0       0       0       0       0       0       0
       0       0       0       0       0       0       0       0       0       0
       0       0       0       0       0       0       0       0       0       0
       0       0       0       0       0       0       0       0       0       0
       0       0       0       0       0       0       0       0       0       0
       0       0       0       0       0       0       0       0       0       0
       0       0       0       0       0       0       0       0       0       0
       0       0       0       0       0       0       0       0       0       0
       0       0       0       0       0       0       0       0       0       0
       0       0       0       0       0       0       0       0       0       0
       0       0       0       0       0       0       0       0       0       0
       0       0       0       0       0       0       0       0       0       0
       0       0       0       0       0       0       0       0       0       0
       0       0       0       0       0       0       0       0       0       0
       0       0       0       0       0       0       0       0       0       0
       0       0       0       0       0       0       0       0       0       0
       0       0       0       0       0       0       0       0       0       0
       0       0       0       0       0       0       0       0       0       0
       0       0       0       0       0       0       0       0       0       0
       0       0       0       0       0       0       0       0       0       0
       0       0       0       0       0       0       0       0       0       0
       0       0       0       0       0       0       0       0       0       0
       0       0       0       0       0       0       0       0       0       0
       0       0       0       0       0       0       0       0       0       0
       0       0       0       0       0       0       0       0       0       0
       0       0       0       0       0       0       0       0       0       0
       0       0       0       0       0       0       0       0       0       0
       0       0       0       0       0       0       0       0       0       0
       0       0       0       0       0       0       0       0       0       0
       0       0       0       0       0       0       0       0       0       0
       0       0       0       0       0       0       0       0       0       0
       0       0       0       0       0       0       0       0       0       0
       0       0       0       0       0       0       0       0       0       0
       0       0       0       0       0       0       0       0       0       0
       0       0       0       0       0       0       0       0       0       0
       0       0       0       0       0       0       0       0       0       0
       0       0       0       0       0       0       0       0       0       0
       0       0       0       0       0       0       0       0       0       0
       0       0       0       0       0       0       0       0       0       0
       0       0       0       0       0       0       0       0       0       0
       0       0       0       0       0       0       0       0       0       0
       0       0       0       0       0       0       0       0       0       0
       0       0       0       0       0       0       0       0       0       0
       0       0       0       0       0       0       0       0       0       0
       0       0       0       0       0       0       0       0       0       0
       0       0       0       0       0       0       0       0       0       0
       0       0       0       0       0       0       0       0       0       0
       0       0       0       0       0       0       0       0       0       0
       0       0       0       0       0       0       0       0       0       0
       0       0       0       0       0       0       0       0       0       0
       0       0       0       0       0       0       0       0       0       0
       0       0       0       0       0       0       0       0       0       0
       0       0       0       0       0       0       0       0       0       0
       0       0       0       0       0       0       0       0       0       0
       0       0       0       0       0       0       0       0       0       0
       0       0       0       0       0       0       0       0       0       0
       0       0       0       0       0       0       0       0       0       0
       0       0       0       0       0       0       0       0       0       0
       0       0       0       0       0       0       0       0       0       0
       0       0       0       0       0       0       0       0       0       0
       0       0       0       0       0       0       0       0       0       0
       0       0       0       0       0       0       0       0       0       0
       0       0       0       0       0       0       0       0       0       0
       0       0       0       0       0       0       0       0       0       0
       0       0       0       0       0       0       0       0       0       0
       0       0       0       0       0       0       0       0       0       0
       0       0       0       0       0       0       0       0       0       0
       0       0       0       0       0       0       0       0       0       0
       0       0       0       0       0       0       0
%FLAG IROTAT                                                                    
%FORMAT(10I8)                                                                   
       0       0       0       0       0       0       0       0       0       0
       0       0       0       0       0       0       0       0       0       0
       0       0       0       0       0       0       0       0       0       0
       0       0       0       0       0       0       0       0       0       0
       0       0       0       0       0       0       0       0       0       0
       0       0       0       0       0       0       0       0       0       0
       0       0       0       0       0       0       0       0       0       0
       0       0       0       0       0       0       0       0       0       0
       0       0       0       0       0       0       0       0       0       0
       0       0       0       0       0       0       0       0       0       0
       0       0       0       0       0       0       0       0       0       0
       0       0       0       0       0       0       0       0       0       0
       0       0       0       0       0       0       0       0       0       0
       0       0       0       0       0       0       0       0       0       0
       0       0       0       0       0       0       0       0       0       0
       0       0       0       0       0       0       0       0       0       0
       0       0       0       0       0       0       0       0       0       0
       0       0       0       0       0       0       0       0       0       0
       0       0       0       0       0       0       0       0       0       0
       0       0       0       0       0       0       0       0       0       0
       0       0       0       0       0       0       0       0       0       0
       0       0       0       0       0       0       0       0       0       0
       0       0       0       0       0       0       0       0       0       0
       0       0       0       0       0       0       0       0       0       0
       0       0       0       0       0       0       0       0       0       0
       0       0       0       0       0       0       0       0       0       0
       0       0       0       0       0       0       0       0       0       0
       0       0       0       0       0       0       0       0       0       0
       0       0       0       0       0       0       0       0       0       0
       0       0       0       0       0       0       0       0       0       0
       0       0       0       0       0       0       0       0       0       0
       0       0       0       0       0       0       0       0       0       0
       0       0       0       0       0       0       0       0       0       0
       0       0       0       0       0       0       0       0       0       0
       0       0       0       0       0       0       0       0       0       0
       0       0       0       0       0       0       0       0       0       0
       0       0       0       0       0       0       0       0       0       0
       0       0       0       0       0       0       0       0       0       0
       0       0       0       0       0       0       0       0       0       0
       0       0       0       0       0       0       0       0       0       0
       0       0       0       0       0       0       0       0       0       0
       0       0       0       0       0       0       0       0       0       0
       0       0       0       0       0       0       0       0       0       0
       0       0       0       0       0       0       0       0       0       0
       0       0       0       0       0       0       0       0       0       0
       0       0       0       0       0       0       0       0       0       0
       0       0       0       0       0       0       0       0       0       0
       0       0       0       0       0       0       0       0       0       0
       0       0       0       0       0       0       0       0       0       0
       0       0       0       0       0       0       0       0       0       0
       0       0       0       0       0       0       0       0       0       0
       0       0       0       0       0       0       0       0       0       0
       0       0       0       0       0       0       0       0       0       0
       0       0       0       0       0       0       0       0       0       0
       0       0       0       0       0       0       0       0       0       0
       0       0       0       0       0       0       0       0       0       0
       0       0       0       0       0       0       0       0       0       0
       0       0       0       0       0       0       0       0       0       0
       0       0       0       0       0       0       0       0       0       0
       0       0       0       0       0       0       0       0       0       0
       0       0       0       0       0       0       0       0       0       0
       0       0       0       0       0       0       0       0       0       0
       0       0       0       0       0       0       0       0       0       0
       0       0       0       0       0       0       0       0       0       0
       0       0       0       0       0       0       0       0       0       0
       0       0       0       0       0       0       0       0       0       0
       0       0       0       0       0       0       0       0       0       0
       0       0       0       0       0       0       0       0       0       0
       0       0       0       0       0       0       0       0       0       0
       0       0       0       0       0       0       0       0       0       0
       0       0       0       0       0       0       0       0       0       0
       0       0       0       0       0       0       0       0       0       0
       0       0       0       0       0       0       0       0       0       0
       0       0       0       0       0       0       0       0       0       0
       0       0       0       0       0       0       0       0       0       0
       0       0       0       0       0       0       0       0       0       0
       0       0       0       0       0       0       0       0       0       0
       0       0       0       0       0       0       0       0       0       0
       0       0       0       0       0       0       0       0       0       0
       0       0       0       0       0       0       0       0       0       0
       0       0       0       0       0       0       0       0       0       0
       0       0       0       0       0       0       0       0       0       0
       0       0       0       0       0       0       0       0       0       0
       0       0       0       0       0       0       0       0       0       0
       0       0       0       0       0       0       0       0       0       0
       0       0       0       0       0       0       0       0       0       0
       0       0       0       0       0       0       0       0       0       0
       0       0       0       0       0       0       0       0       0       0
       0       0       0       0       0       0       0       0       0       0
       0       0       0       0       0       0       0       0       0       0
       0       0       0       0       0       0       0       0       0       0
       0       0       0       0       0       0       0       0       0       0
       0       0       0       0       0       0       0       0       0       0
       0       0       0       0       0       0       0       0       0       0
       0       0       0       0       0       0       0       0       0       0
       0       0       0       0       0       0       0       0       0       0
       0       0       0       0       0       0       0       0       0       0
       0       0       0       0       0       0       0       0       0       0
       0       0       0       0       0       0       0       0       0       0
       0       0       0       0       0       0       0       0       0       0
       0       0       0       0       0       0       0       0       0       0
       0       0       0       0       0       0       0       0       0       0
       0       0       0       0       0       0       0       0       0       0
       0       0       0       0       0       0       0       0       0       0
       0       0       0       0       0       0       0       0       0       0
       0       0       0       0       0       0       0       0       0       0
       0       0       0       0       0       0       0       0       0       0
       0       0       0       0       0       0       0       0       0       0
       0       0       0       0       0       0       0       0       0       0
       0       0       0       0       0       0       0       0       0       0
       0       0       0       0       0       0       0       0       0       0
       0       0       0       0       0       0       0       0       0       0
       0       0       0       0       0       0       0       0       0       0
       0       0       0       0       0       0       0       0       0       0
       0       0       0       0       0       0       0       0       0       0
       0       0       0       0       0       0       0       0       0       0
       0       0       0       0       0       0       0       0       0       0
       0       0       0       0       0       0       0       0       0       0
       0       0       0       0       0       0       0       0       0       0
       0       0       0       0       0       0       0       0       0       0
       0       0       0       0       0       0       0       0       0       0
       0       0       0       0       0       0       0       0       0       0
       0       0       0       0       0       0       0       0       0       0
       0       0       0       0       0       0       0       0       0       0
       0       0       0       0       0       0       0       0       0       0
       0       0       0       0       0       0       0       0       0       0
       0       0       0       0       0       0       0       0       0       0
       0       0       0       0       0       0       0       0       0       0
       0       0       0       0       0       0       0       0       0       0
       0       0       0       0       0       0       0       0       0       0
       0       0       0       0       0       0       0       0       0       0
       0       0       0       0       0       0       0       0       0       0
       0       0       0       0       0       0       0       0       0       0
       0       0       0       0       0       0       0       0       0       0
       0       0       0       0       0       0       0       0       0       0
       0       0       0       0       0       0       0       0       0       0
       0       0       0       0       0       0       0       0       0       0
       0       0       0       0       0       0       0       0       0       0
       0       0       0       0       0       0       0       0       0       0
       0       0       0       0       0       0       0       0       0       0
       0       0       0       0       0       0       0       0       0       0
       0       0       0       0       0       0       0       0       0       0
       0       0       0       0       0       0       0       0       0       0
       0       0       0       0       0       0       0       0       0       0
       0       0       0       0       0       0       0       0       0       0
       0       0       0       0       0       0       0       0       0       0
       0       0       0       0       0       0       0       0       0       0
       0       0       0       0       0       0       0       0       0       0
       0       0       0       0       0       0       0       0       0       0
       0       0       0       0       0       0       0       0       0       0
       0       0       0       0       0       0       0       0       0       0
       0       0       0       0       0       0       0       0       0       0
       0       0       0       0       0       0       0       0       0       0
       0       0       0       0       0       0       0       0       0       0
       0       0       0       0       0       0       0       0       0       0
       0       0       0       0       0       0       0       0       0       0
       0       0       0       0       0       0       0       0       0       0
       0       0       0       0       0       0       0       0       0       0
       0       0       0       0       0       0       0       0       0       0
       0       0       0       0       0       0       0       0       0       0
       0       0       0       0       0       0       0       0       0       0
       0       0       0       0       0       0       0       0       0       0
       0       0       0       0       0       0       0       0       0       0
       0       0       0       0       0       0       0       0       0       0
       0       0       0       0       0       0       0       0       0       0
       0       0       0       0       0       0       0       0       0       0
       0       0       0       0       0       0       0       0       0       0
       0       0       0       0       0       0       0       0       0       0
       0       0       0       0       0       0       0       0       0       0
       0       0       0       0       0       0       0       0       0       0
       0       0       0       0       0       0       0       0       0       0
       0       0       0       0       0       0       0       0       0       0
       0       0       0       0       0       0       0       0       0       0
       0       0       0       0       0       0       0       0       0       0
       0       0       0       0       0       0       0       0       0       0
       0       0       0       0       0       0       0       0       0       0
       0       0       0       0       0       0       0       0       0       0
       0       0       0       0       0       0       0       0       0       0
       0       0       0       0       0       0       0       0       0       0
       0       0       0       0       0       0       0       0       0       0
       0       0       0       0       0       0       0       0       0       0
       0       0       0       0       0       0       0       0       0       0
       0       0       0       0       0       0       0       0       0       0
       0       0       0       0       0       0       0       0       0       0
       0       0       0       0       0       0       0       0       0       0
       0       0       0       0       0       0       0       0       0       0
       0       0       0       0       0       0       0       0       0       0
       0       0       0       0       0       0       0       0       0       0
       0       0       0       0       0       0       0       0       0       0
       0       0       0       0       0       0       0       0       0       0
       0       0       0       0       0       0       0       0       0       0
       0       0       0       0       0       0       0       0       0       0
       0       0       0       0       0       0       0       0       0       0
       0       0       0       0       0       0       0       0       0       0
       0       0       0       0       0       0       0       0       0       0
       0       0       0       0       0       0       0       0       0       0
       0       0       0       0       0       0       0       0       0       0
       0       0       0       0       0       0       0       0       0       0
       0       0       0       0       0       0       0       0       0       0
       0       0       0       0       0       0       0       0       0       0
       0       0       0       0       0       0       0       0       0       0
       0       0       0       0       0       0       0       0       0       0
       0       0       0       0       0       0       0       0       0       0
       0       0       0       0       0       0       0       0       0       0
       0       0       0       0       0       0       0       0       0       0
       0       0       0       0       0       0       0       0       0       0
       0       0       0       0       0       0       0       0       0       0
       0       0       0       0       0       0       0       0       0       0
       0       0       0       0       0       0       0       0       0       0
       0       0       0       0       0       0       0       0       0       0
       0       0       0       0       0       0       0       0       0       0
       0       0       0       0       0       0       0       0       0       0
       0       0       0       0       0       0       0       0       0       0
       0       0       0       0       0       0       0       0       0       0
       0       0       0       0       0       0       0       0       0       0
       0       0       0       0       0       0       0       0       0       0
       0       0       0       0       0       0       0       0       0       0
       0       0       0       0       0       0       0       0       0       0
       0       0       0       0       0       0       0       0       0       0
       0       0       0       0       0       0       0       0       0       0
       0       0       0       0       0       0       0       0       0       0
       0       0       0       0       0       0       0       0       0       0
       0       0       0       0       0       0       0       0       0       0
       0       0       0       0       0       0       0       0       0       0
       0       0       0       0       0       0       0       0       0       0
       0       0       0       0       0       0       0       0       0       0
       0       0       0       0       0       0       0       0       0       0
       0       0       0       0       0       0       0       0       0       0
       0       0       0       0       0       0       0       0       0       0
       0       0       0       0       0       0       0       0       0       0
       0       0       0       0       0       0       0       0       0       0
       0       0       0       0       0       0       0       0       0       0
       0       0       0       0       0       0       0       0       0       0
       0       0       0       0       0       0       0       0       0       0
       0       0       0       0       0       0       0       0       0       0
       0       0       0       0       0       0       0       0       0       0
       0       0       0       0       0       0       0       0       0       0
       0       0       0       0       0       0       0       0       0       0
       0       0       0       0       0       0       0       0       0       0
       0       0       0       0       0       0       0       0       0       0
       0       0       0       0       0       0       0       0       0       0
       0       0       0       0       0       0       0       0       0       0
       0       0       0       0       0       0       0       0       0       0
       0       0       0       0       0       0       0       0       0       0
       0       0       0       0       0       0       0       0       0       0
       0       0       0       0       0       0       0       0       0       0
       0       0       0       0       0       0       0       0       0       0
       0       0       0       0       0       0       0       0       0       0
       0       0       0       0       0       0       0       0       0       0
       0       0       0       0       0       0       0       0       0       0
       0       0       0       0       0       0       0       0       0       0
       0       0       0       0       0       0       0       0       0       0
       0       0       0       0       0       0       0       0       0       0
       0       0       0       0       0       0       0       0       0       0
       0       0       0       0       0       0       0       0       0       0
       0       0       0       0       0       0       0       0       0       0
       0       0       0       0       0       0       0       0       0       0
       0       0       0       0       0       0       0       0       0       0
       0       0       0       0       0       0       0       0       0       0
       0       0       0       0       0       0       0       0       0       0
       0       0       0       0       0       0       0       0       0       0
       0       0       0       0       0       0       0       0       0       0
       0       0       0       0       0       0       0       0       0       0
       0       0       0       0       0       0       0       0       0       0
       0       0       0       0       0       0       0       0       0       0
       0       0       0       0       0       0       0       0       0       0
       0       0       0       0       0       0       0       0       0       0
       0       0       0       0       0       0       0       0       0       0
       0       0       0       0       0       0       0       0       0       0
       0       0       0       0       0       0       0       0       0       0
       0       0       0       0       0       0       0       0       0       0
       0       0       0       0       0       0       0       0       0       0
       0       0       0       0       0       0       0       0       0       0
       0       0       0       0       0       0       0       0       0       0
       0       0       0       0       0       0       0       0       0       0
       0       0       0       0       0       0       0       0       0       0
       0       0       0       0       0       0       0       0       0       0
       0       0       0       0       0       0       0       0       0       0
       0       0       0       0       0       0       0       0       0       0
       0       0       0       0       0       0       0       0       0       0
       0       0       0       0       0       0       0       0       0       0
       0       0       0       0       0       0       0       0       0       0
       0       0       0       0       0       0       0       0       0       0
       0       0       0       0       0       0       0       0       0       0
       0       0       0       0       0       0       0       0       0       0
       0       0       0       0       0       0       0       0       0       0
       0       0       0       0       0       0       0       0       0       0
       0       0       0       0       0       0       0       0       0       0
       0       0       0       0       0       0       0       0       0       0
       0       0       0       0       0       0       0       0       0       0
       0       0       0       0       0       0       0       0       0       0
       0       0       0       0       0       0       0       0       0       0
       0       0       0       0       0       0       0       0       0       0
       0       0       0       0       0       0       0       0       0       0
       0       0       0       0       0       0       0       0       0       0
       0       0       0       0       0       0       0       0       0       0
       0       0       0       0       0       0       0       0       0       0
       0       0       0       0       0       0       0       0       0       0
       0       0       0       0       0       0       0       0       0       0
       0       0       0       0       0       0       0       0       0       0
       0       0       0       0       0       0       0       0       0       0
       0       0       0       0       0       0       0       0       0       0
       0       0       0       0       0       0       0       0       0       0
       0       0       0       0       0       0       0       0       0       0
       0       0       0       0       0       0       0       0       0       0
       0       0       0       0       0       0       0       0       0       0
       0       0       0       0       0       0       0       0       0       0
       0       0       0       0       0       0       0       0       0       0
       0       0       0       0       0       0       0       0       0       0
       0       0       0       0       0       0       0       0       0       0
       0       0       0       0       0       0       0       0       0       0
       0       0       0       0       0       0       0       0       0       0
       0       0       0       0       0       0       0       0       0       0
       0       0       0       0       0       0       0       0       0       0
       0       0       0       0       0       0       0       0       0       0
       0       0       0       0       0       0       0       0       0       0
       0       0       0       0       0       0       0       0       0       0
       0       0       0       0       0       0       0       0       0       0
       0       0       0       0       0       0       0       0       0       0
       0       0       0       0       0       0       0       0       0       0
       0       0       0       0       0       0       0       0       0       0
       0       0       0       0       0       0       0       0       0       0
       0       0       0       0       0       0       0       0       0       0
       0       0       0       0       0       0       0       0       0       0
       0       0       0       0       0       0       0       0       0       0
       0       0       0       0       0       0       0       0       0       0
       0       0       0       0       0       0       0       0       0       0
       0       0       0       0       0       0       0       0       0       0
       0       0       0       0       0       0       0       0       0       0
       0       0       0       0       0       0       0       0       0       0
       0       0       0       0       0       0       0       0       0       0
       0       0       0       0       0       0       0       0       0       0
       0       0       0       0       0       0       0       0       0       0
       0       0       0       0       0       0       0       0       0       0
       0       0       0       0       0       0       0       0       0       0
       0       0       0       0       0       0       0       0       0       0
       0       0       0       0       0       0       0       0       0       0
       0       0       0       0       0       0       0       0       0       0
       0       0       0       0       0       0       0       0       0       0
       0       0       0       0       0       0       0       0       0       0
       0       0       0       0       0       0       0       0       0       0
       0       0       0       0       0       0       0       0       0       0
       0       0       0       0       0       0       0       0       0       0
       0       0       0       0       0       0       0       0       0       0
       0       0       0       0       0       0       0       0       0       0
       0       0       0       0       0       0       0       0       0       0
       0       0       0       0       0       0       0       0       0       0
       0       0       0       0       0       0       0       0       0       0
       0       0       0       0       0       0       0       0       0       0
       0       0       0       0       0       0       0       0       0       0
       0       0       0       0       0       0       0       0       0       0
       0       0       0       0       0       0       0       0       0       0
       0       0       0       0       0       0       0       0       0       0
       0       0       0       0       0       0       0       0       0       0
       0       0       0       0       0       0       0       0       0       0
       0       0       0       0       0       0       0       0       0       0
       0       0       0       0       0       0       0       0       0       0
       0       0       0       0       0       0       0       0       0       0
       0       0       0       0       0       0       0       0       0       0
       0       0       0       0       0       0       0       0       0       0
       0       0       0       0       0       0       0       0       0       0
       0       0       0       0       0       0       0       0       0       0
       0       0       0       0       0       0       0       0       0       0
       0       0       0       0       0       0       0       0       0       0
       0       0       0       0       0       0       0       0       0       0
       0       0       0       0       0       0       0       0       0       0
       0       0       0       0       0       0       0       0       0       0
       0       0       0       0       0       0       0       0       0       0
       0       0       0       0       0       0       0       0       0       0
       0       0       0       0       0       0       0       0       0       0
       0       0       0       0       0       0       0       0       0       0
       0       0       0       0       0       0       0       0       0       0
       0       0       0       0       0       0       0       0       0       0
       0       0       0       0       0       0       0       0       0       0
       0       0       0       0       0       0       0       0       0       0
       0       0       0       0       0       0       0       0       0       0
       0       0       0       0       0       0       0       0       0       0
       0       0       0       0       0       0       0       0       0       0
       0       0       0       0       0       0       0       0       0       0
       0       0       0       0       0       0       0       0       0       0
       0       0       0       0       0       0       0       0       0       0
       0       0       0       0       0       0       0       0       0       0
       0       0       0       0       0       0       0       0       0       0
       0       0       0       0       0       0       0       0       0       0
       0       0       0       0       0       0       0       0       0       0
       0       0       0       0       0       0       0       0       0       0
       0       0       0       0       0       0       0       0       0       0
       0       0       0       0       0       0       0       0       0       0
       0       0       0       0       0       0       0       0       0       0
       0       0       0       0       0       0       0       0       0       0
       0       0       0       0       0       0       0       0       0       0
       0       0       0       0       0       0       0       0       0       0
       0       0       0       0       0       0       0       0       0       0
       0       0       0       0       0       0       0       0       0       0
       0       0       0       0       0       0       0       0       0       0
       0       0       0       0       0       0       0       0       0       0
       0       0       0       0       0       0       0       0       0       0
       0       0       0       0       0       0       0       0       0       0
       0       0       0       0       0       0       0       0       0       0
       0       0       0       0       0       0       0       0       0       0
       0       0       0       0       0       0       0       0       0       0
       0       0       0       0       0       0       0       0       0       0
       0       0       0       0       0       0       0       0       0       0
       0       0       0       0       0       0       0       0       0       0
       0       0       0       0       0       0       0       0       0       0
       0       0       0       0       0       0       0       0       0       0
       0       0       0       0       0       0       0       0       0       0
       0       0       0       0       0       0       0       0       0       0
       0       0       0       0       0       0       0       0       0       0
       0       0       0       0       0       0       0       0       0       0
       0       0       0       0       0       0       0       0       0       0
       0       0       0       0       0       0       0       0       0       0
       0       0       0       0       0       0       0       0       0       0
       0       0       0       0       0       0       0       0       0       0
       0       0       0       0       0       0       0       0       0       0
       0       0       0       0       0       0       0       0       0       0
       0       0       0       0       0       0       0       0       0       0
       0       0       0       0       0       0       0       0       0       0
       0       0       0       0       0       0       0       0       0       0
       0       0       0       0       0       0       0       0       0       0
       0       0       0       0       0       0       0       0       0       0
       0       0       0       0       0       0       0       0       0       0
       0       0       0       0       0       0       0       0       0       0
       0       0       0       0       0       0       0       0       0       0
       0       0       0       0       0       0       0       0       0       0
       0       0       0       0       0       0       0       0       0       0
       0       0       0       0       0       0       0       0       0       0
       0       0       0       0       0       0       0       0       0       0
       0       0       0       0       0       0       0       0       0       0
       0       0       0       0       0       0       0       0       0       0
       0       0       0       0       0       0       0       0       0       0
       0       0       0       0       0       0       0       0       0       0
       0       0       0       0       0       0       0       0       0       0
       0       0       0       0       0       0       0       0       0       0
       0       0       0       0       0       0       0       0       0       0
       0       0       0       0       0       0       0       0       0       0
       0       0       0       0       0       0       0       0       0       0
       0       0       0       0       0       0       0       0       0       0
       0       0       0       0       0       0       0       0       0       0
       0       0       0       0       0       0       0       0       0       0
       0       0       0       0       0       0       0       0       0       0
       0       0       0       0       0       0       0       0       0       0
       0       0       0       0       0       0       0       0       0       0
       0       0       0       0       0       0       0       0       0       0
       0       0       0       0       0       0       0       0       0       0
       0       0       0       0       0       0       0       0       0       0
       0       0       0       0       0       0       0       0       0       0
       0       0       0       0       0       0       0       0       0       0
       0       0       0       0       0       0       0       0       0       0
       0       0       0       0       0       0       0       0       0       0
       0       0       0       0       0       0       0       0       0       0
       0       0       0       0       0       0       0       0       0       0
       0       0       0       0       0       0       0       0       0       0
       0       0       0       0       0       0       0       0       0       0
       0       0       0       0       0       0       0       0       0       0
       0       0       0       0       0       0       0       0       0       0
       0       0       0       0       0       0       0       0       0       0
       0       0       0       0       0       0       0       0       0       0
       0       0       0       0       0       0       0       0       0       0
       0       0       0       0       0       0       0       0       0       0
       0       0       0       0       0       0       0       0       0       0
       0       0       0       0       0       0       0       0       0       0
       0       0       0       0       0       0       0       0       0       0
       0       0       0       0       0       0       0       0       0       0
       0       0       0       0       0       0       0       0       0       0
       0       0       0       0       0       0       0       0       0       0
       0       0       0       0       0       0       0       0       0       0
       0       0       0       0       0       0       0       0       0       0
       0       0       0       0       0       0       0       0       0       0
       0       0       0       0       0       0       0       0       0       0
       0       0       0       0       0       0       0       0       0       0
       0       0       0       0       0       0       0       0       0       0
       0       0       0       0       0       0       0       0       0       0
       0       0       0       0       0       0       0       0       0       0
       0       0       0       0       0       0       0       0       0       0
       0       0       0       0       0       0       0       0       0       0
       0       0       0       0       0       0       0       0       0       0
       0       0       0       0       0       0       0       0       0       0
       0       0       0       0       0       0       0       0       0       0
       0       0       0       0       0       0       0       0       0       0
       0       0       0       0       0       0       0       0       0       0
       0       0       0       0       0       0       0       0       0       0
       0       0       0       0       0       0       0       0       0       0
       0       0       0       0       0       0       0       0       0       0
       0       0       0       0       0       0       0       0       0       0
       0       0       0       0       0       0       0       0       0       0
       0       0       0       0       0       0       0       0       0       0
       0       0       0       0       0       0       0       0       0       0
       0       0       0       0       0       0       0       0       0       0
       0       0       0       0       0       0       0       0       0       0
       0       0       0       0       0       0       0       0       0       0
       0       0       0       0       0       0       0       0       0       0
       0       0       0       0       0       0       0       0       0       0
       0       0       0       0       0       0       0       0       0       0
       0       0       0       0       0       0       0       0       0       0
       0       0       0       0       0       0       0       0       0       0
       0       0       0       0       0       0       0       0       0       0
       0       0       0       0       0       0       0       0       0       0
       0       0       0       0       0       0       0       0       0       0
       0       0       0       0       0       0       0       0       0       0
       0       0       0       0       0       0       0       0       0       0
       0       0       0       0       0       0       0       0       0       0
       0       0       0       0       0       0       0       0       0       0
       0       0       0       0       0       0       0       0       0       0
       0       0       0       0       0       0       0       0       0       0
       0       0       0       0       0       0       0       0       0       0
       0       0       0       0       0       0       0       0       0       0
       0       0       0       0       0       0       0       0       0       0
       0       0       0       0       0       0       0       0       0       0
       0       0       0       0       0       0       0       0       0       0
       0       0       0       0       0       0       0       0       0       0
       0       0       0       0       0       0       0       0       0       0
       0       0       0       0       0       0       0       0       0       0
       0       0       0       0       0       0       0       0       0       0
       0       0       0       0       0       0       0       0       0       0
       0       0       0       0       0       0       0       0       0       0
       0       0       0       0       0       0       0       0       0       0
       0       0       0       0       0       0       0       0       0       0
       0       0       0       0       0       0       0       0       0       0
       0       0       0       0       0       0       0       0       0       0
       0       0       0       0       0       0       0       0       0       0
       0       0       0       0       0       0       0       0       0       0
       0       0       0       0       0       0       0       0       0       0
       0       0       0       0       0       0       0       0       0       0
       0       0       0       0       0       0       0       0       0       0
       0       0       0       0       0       0       0       0       0       0
       0       0       0       0       0       0       0       0       0       0
       0       0       0       0       0       0       0       0       0       0
       0       0       0       0       0       0       0       0       0       0
       0       0       0       0       0       0       0       0       0       0
       0       0       0       0       0       0       0       0       0       0
       0       0       0       0       0       0       0       0       0       0
       0       0       0       0       0       0       0       0       0       0
       0       0       0       0       0       0       0       0       0       0
       0       0       0       0       0       0       0       0       0       0
       0       0       0       0       0       0       0       0       0       0
       0       0       0       0       0       0       0       0       0       0
       0       0       0       0       0       0       0       0       0       0
       0       0       0       0       0       0       0       0       0       0
       0       0       0       0       0       0       0       0       0       0
       0       0       0       0       0       0       0       0       0       0
       0       0       0       0       0       0       0       0       0       0
       0       0       0       0       0       0       0       0       0       0
       0       0       0       0       0       0       0       0       0       0
       0       0       0       0       0       0       0       0       0       0
       0       0       0       0       0       0       0       0       0       0
       0       0       0       0       0       0       0       0       0       0
       0       0       0       0       0       0       0       0       0       0
       0       0       0       0       0       0       0       0       0       0
       0       0       0       0       0       0       0       0       0       0
       0       0       0       0       0       0       0       0       0       0
       0       0       0       0       0       0       0       0       0       0
       0       0       0       0       0       0       0       0       0       0
       0       0       0       0       0       0       0       0       0       0
       0       0       0       0       0       0       0       0       0       0
       0       0       0       0       0       0       0       0       0       0
       0       0       0       0       0       0       0       0       0       0
       0       0       0       0       0       0       0       0       0       0
       0       0       0       0       0       0       0       0       0       0
       0       0       0       0       0       0       0       0       0       0
       0       0       0       0       0       0       0       0       0       0
       0       0       0       0       0       0       0       0       0       0
       0       0       0       0       0       0       0       0       0       0
       0       0       0       0       0       0       0       0       0       0
       0       0       0       0       0       0       0       0       0       0
       0       0       0       0       0       0       0       0       0       0
       0       0       0       0       0       0       0       0       0       0
       0       0       0       0       0       0       0       0       0       0
       0       0       0       0       0       0       0       0       0       0
       0       0       0       0       0       0       0       0       0       0
       0       0       0       0       0       0       0       0       0       0
       0       0       0       0       0       0       0       0       0       0
       0       0       0       0       0       0       0       0       0       0
       0       0       0       0       0       0       0       0       0       0
       0       0       0       0       0       0       0       0       0       0
       0       0       0       0       0       0       0       0       0       0
       0       0       0       0       0       0       0       0       0       0
       0       0       0       0       0       0       0       0       0       0
       0       0       0       0       0       0       0       0       0       0
       0       0       0       0       0       0       0       0       0       0
       0       0       0       0       0       0       0       0       0       0
       0       0       0       0       0       0       0       0       0       0
       0       0       0       0       0       0       0       0       0       0
       0       0       0       0       0       0       0       0       0       0
       0       0       0       0       0       0       0       0       0       0
       0       0       0       0       0       0       0       0       0       0
       0       0       0       0       0       0       0       0       0       0
       0       0       0       0       0       0       0       0       0       0
       0       0       0       0       0       0       0       0       0       0
       0       0       0       0       0       0       0       0       0       0
       0       0       0       0       0       0       0       0       0       0
       0       0       0       0       0       0       0       0       0       0
       0       0       0       0       0       0       0       0       0       0
       0       0       0       0       0       0       0       0       0       0
       0       0       0       0       0       0       0       0       0       0
       0       0       0       0       0       0       0       0       0       0
       0       0       0       0       0       0       0       0       0       0
       0       0       0       0       0       0       0       0       0       0
       0       0       0       0       0       0       0       0       0       0
       0       0       0       0       0       0       0       0       0       0
       0       0       0       0       0       0       0       0       0       0
       0       0       0       0       0       0       0       0       0       0
       0       0       0       0       0       0       0       0       0       0
       0       0       0       0       0       0       0       0       0       0
       0       0       0       0       0       0       0       0       0       0
       0       0       0       0       0       0       0       0       0       0
       0       0       0       0       0       0       0       0       0       0
       0       0       0       0       0       0       0       0       0       0
       0       0       0       0       0       0       0       0       0       0
       0       0       0       0       0       0       0       0       0       0
       0       0       0       0       0       0       0       0       0       0
       0       0       0       0       0       0       0       0       0       0
       0       0       0       0       0       0       0       0       0       0
       0       0       0       0       0       0       0       0       0       0
       0       0       0       0       0       0       0       0       0       0
       0       0       0       0       0       0       0       0       0       0
       0       0       0       0       0       0       0       0       0       0
       0       0       0       0       0       0       0       0       0       0
       0       0       0       0       0       0       0       0       0       0
       0       0       0       0       0       0       0       0       0       0
       0       0       0       0       0       0       0       0       0       0
       0       0       0       0       0       0       0       0       0       0
       0       0       0       0       0       0       0       0       0       0
       0       0       0       0       0       0       0       0       0       0
       0       0       0       0       0       0       0       0       0       0
       0       0       0       0       0       0       0       0       0       0
       0       0       0       0       0       0       0       0       0       0
       0       0       0       0       0       0       0       0       0       0
       0       0       0       0       0       0       0       0       0       0
       0       0       0       0       0       0       0       0       0       0
       0       0       0       0       0       0       0       0       0       0
       0       0       0       0       0       0       0       0       0       0
       0       0       0       0       0       0       0       0       0       0
       0       0       0       0       0       0       0       0       0       0
       0       0       0       0       0       0       0       0       0       0
       0       0       0       0       0       0       0       0       0       0
       0       0       0       0       0       0       0       0       0       0
       0       0       0       0       0       0       0       0       0       0
       0       0       0       0       0       0       0       0       0       0
       0       0       0       0       0       0       0       0       0       0
       0       0       0       0       0       0       0       0       0       0
       0       0       0       0       0       0       0       0       0       0
       0       0       0       0       0       0       0       0       0       0
       0       0       0       0       0       0       0       0       0       0
       0       0       0       0       0       0       0       0       0       0
       0       0       0       0       0       0       0       0       0       0
       0       0       0       0       0       0       0       0       0       0
       0       0       0       0       0       0       0       0       0       0
       0       0       0       0       0       0       0       0       0       0
       0       0       0       0       0       0       0       0       0       0
       0       0       0       0       0       0       0       0       0       0
       0       0       0       0       0       0       0       0       0       0
       0       0       0       0       0       0       0       0       0       0
       0       0       0       0       0       0       0       0       0       0
       0       0       0       0       0       0       0       0       0       0
       0       0       0       0       0       0       0       0       0       0
       0       0       0       0       0       0       0       0       0       0
       0       0       0       0       0       0       0       0       0       0
       0       0       0       0       0       0       0       0       0       0
       0       0       0       0       0       0       0       0       0       0
       0       0       0       0       0       0       0       0       0       0
       0       0       0       0       0       0       0       0       0       0
       0       0       0       0       0       0       0       0       0       0
       0       0       0       0       0       0       0       0       0       0
       0       0       0       0       0       0       0       0       0       0
       0       0       0       0       0       0       0       0       0       0
       0       0       0       0       0       0       0       0       0       0
       0       0       0       0       0       0       0       0       0       0
       0       0       0       0       0       0       0       0       0       0
       0       0       0       0       0       0       0       0       0       0
       0       0       0       0       0       0       0       0       0       0
       0       0       0       0       0       0       0       0       0       0
       0       0       0       0       0       0       0       0       0       0
       0       0       0       0       0       0       0       0       0       0
       0       0       0       0       0       0       0       0       0       0
       0       0       0       0       0       0       0       0       0       0
       0       0       0       0       0       0       0       0       0       0
       0       0       0       0       0       0       0       0       0       0
       0       0       0       0       0       0       0       0       0       0
       0       0       0       0       0       0       0       0       0       0
       0       0       0       0       0       0       0       0       0       0
       0       0       0       0       0       0       0       0       0       0
       0       0       0       0       0       0       0       0       0       0
       0       0       0       0       0       0       0       0       0       0
       0       0       0       0       0       0       0       0       0       0
       0       0       0       0       0       0       0       0       0       0
       0       0       0       0       0       0       0       0       0       0
       0       0       0       0       0       0       0       0       0       0
       0       0       0       0       0       0       0       0       0       0
       0       0       0       0       0       0       0       0       0       0
       0       0       0       0       0       0       0       0       0       0
       0       0       0       0       0       0       0       0       0       0
       0       0       0       0       0       0       0       0       0       0
       0       0       0       0       0       0       0       0       0       0
       0       0       0       0       0       0       0       0       0       0
       0       0       0       0       0       0       0       0       0       0
       0       0       0       0       0       0       0       0       0       0
       0       0       0       0       0       0       0       0       0       0
       0       0       0       0       0       0       0       0       0       0
       0       0       0       0       0       0       0       0       0       0
       0       0       0       0       0       0       0       0       0       0
       0       0       0       0       0       0       0       0       0       0
       0       0       0       0       0       0       0       0       0       0
       0       0       0       0       0       0       0       0       0       0
       0       0       0       0       0       0       0       0       0       0
       0       0       0       0       0       0       0       0       0       0
       0       0       0       0       0       0       0       0       0       0
       0       0       0       0       0       0       0       0       0       0
       0       0       0       0       0       0       0       0       0       0
       0       0       0       0       0       0       0       0       0       0
       0       0       0       0       0       0       0       0       0       0
       0       0       0       0       0       0       0       0       0       0
       0       0       0       0       0       0       0       0       0       0
       0       0       0       0       0       0       0       0       0       0
       0       0       0       0       0       0       0       0       0       0
       0       0       0       0       0       0       0       0       0       0
       0       0       0       0       0       0       0       0       0       0
       0       0       0       0       0       0       0       0       0       0
       0       0       0       0       0       0       0       0       0       0
       0       0       0       0       0       0       0       0       0       0
       0       0       0       0       0       0       0       0       0       0
       0       0       0       0       0       0       0       0       0       0
       0       0       0       0       0       0       0       0       0       0
       0       0       0       0       0       0       0       0       0       0
       0       0       0       0       0       0       0       0       0       0
       0       0       0       0       0       0       0       0       0       0
       0       0       0       0       0       0       0       0       0       0
       0       0       0       0       0       0       0       0       0       0
       0       0       0       0       0       0       0       0       0       0
       0       0       0       0       0       0       0       0       0       0
       0       0       0       0       0       0       0       0       0       0
       0       0       0       0       0       0       0       0       0       0
       0       0       0       0       0       0       0       0       0       0
       0       0       0       0       0       0       0       0       0       0
       0       0       0       0       0       0       0       0       0       0
       0       0       0       0       0       0       0       0       0       0
       0       0       0       0       0       0       0       0       0       0
       0       0       0       0       0       0       0       0       0       0
       0       0       0       0       0       0       0       0       0       0
       0       0       0       0       0       0       0       0       0       0
       0       0       0       0       0       0       0       0       0       0
       0       0       0       0       0       0       0       0       0       0
       0       0       0       0       0       0       0       0       0       0
       0       0       0       0       0       0       0       0       0       0
       0       0       0       0       0       0       0       0       0       0
       0       0       0       0       0       0       0       0       0       0
       0       0       0       0       0       0       0       0       0       0
       0       0       0       0       0       0       0       0       0       0
       0       0       0       0       0       0       0       0       0       0
       0       0       0       0       0       0       0       0       0       0
       0       0       0       0       0       0       0       0       0       0
       0       0       0       0       0       0       0       0       0       0
       0       0       0       0       0       0       0       0       0       0
       0       0       0       0       0       0       0       0       0       0
       0       0       0       0       0       0       0       0       0       0
       0       0       0       0       0       0       0       0       0       0
       0       0       0       0       0       0       0       0       0       0
       0       0       0       0       0       0       0       0       0       0
       0       0       0       0       0       0       0       0       0       0
       0       0       0       0       0       0       0       0       0       0
       0       0       0       0       0       0       0       0       0       0
       0       0       0       0       0       0       0       0       0       0
       0       0       0       0       0       0       0       0       0       0
       0       0       0       0       0       0       0       0       0       0
       0       0       0       0       0       0       0       0       0       0
       0       0       0       0       0       0       0       0       0       0
       0       0       0       0       0       0       0       0       0       0
       0       0       0       0       0       0       0       0       0       0
       0       0       0       0       0       0       0       0       0       0
       0       0       0       0       0       0       0       0       0       0
       0       0       0       0       0       0       0       0       0       0
       0       0       0       0       0       0       0       0       0       0
       0       0       0       0       0       0       0       0       0       0
       0       0       0       0       0       0       0       0       0       0
       0       0       0       0       0       0       0       0       0       0
       0       0       0       0       0       0       0       0       0       0
       0       0       0       0       0       0       0       0       0       0
       0       0       0       0       0       0       0       0       0       0
       0       0       0       0       0       0       0       0       0       0
       0       0       0       0       0       0       0       0       0       0
       0       0       0       0       0       0       0       0       0       0
       0       0       0       0       0       0       0       0       0       0
       0       0       0       0       0       0       0       0       0       0
       0       0       0       0       0       0       0       0       0       0
       0       0       0       0       0       0       0       0       0       0
       0       0       0       0       0       0       0       0       0       0
       0       0       0       0       0       0       0       0       0       0
       0       0       0       0       0       0       0       0       0       0
       0       0       0       0       0       0       0       0       0       0
       0       0       0       0       0       0       0       0       0       0
       0       0       0       0       0       0       0       0       0       0
       0       0       0       0       0       0       0       0       0       0
       0       0       0       0       0       0       0       0       0       0
       0       0       0       0       0       0       0       0       0       0
       0       0       0       0       0       0       0       0       0       0
       0       0       0       0       0       0       0       0       0       0
       0       0       0       0       0       0       0       0       0       0
       0       0       0       0       0       0       0       0       0       0
       0       0       0       0       0       0       0       0       0       0
       0       0       0       0       0       0       0       0       0       0
       0       0       0       0       0       0       0       0       0       0
       0       0       0       0       0       0       0       0       0       0
       0       0       0       0       0       0       0       0       0       0
       0       0       0       0       0       0       0       0       0       0
       0       0       0       0       0       0       0       0       0       0
       0       0       0       0       0       0       0       0       0       0
       0       0       0       0       0       0       0       0       0       0
       0       0       0       0       0       0       0       0       0       0
       0       0       0       0       0       0       0       0       0       0
       0       0       0       0       0       0       0       0       0       0
       0       0       0       0       0       0       0       0       0       0
       0       0       0       0       0       0       0       0       0       0
       0       0       0       0       0       0       0       0       0       0
       0       0       0       0       0       0       0       0       0       0
       0       0       0       0       0       0       0       0       0       0
       0       0       0       0       0       0       0       0       0       0
       0       0       0       0       0       0       0       0       0       0
       0       0       0       0       0       0       0       0       0       0
       0       0       0       0       0       0       0       0       0       0
       0       0       0       0       0       0       0       0       0       0
       0       0       0       0       0       0       0       0       0       0
       0       0       0       0       0       0       0       0       0       0
       0       0       0       0       0       0       0       0       0       0
       0       0       0       0       0       0       0       0       0       0
       0       0       0       0       0       0       0       0       0       0
       0       0       0       0       0       0       0       0       0       0
       0       0       0       0       0       0       0       0       0       0
       0       0       0       0       0       0       0       0       0       0
       0       0       0       0       0       0       0       0       0       0
       0       0       0       0       0       0       0       0       0       0
       0       0       0       0       0       0       0       0       0       0
       0       0       0       0       0       0       0       0       0       0
       0       0       0       0       0       0       0       0       0       0
       0       0       0       0       0       0       0       0       0       0
       0       0       0       0       0       0       0       0       0       0
       0       0       0       0       0       0       0       0       0       0
       0       0       0       0       0       0       0       0       0       0
       0       0       0       0       0       0       0       0       0       0
       0       0       0       0       0       0       0       0       0       0
       0       0       0       0       0       0       0       0       0       0
       0       0       0       0       0       0       0       0       0       0
       0       0       0       0       0       0       0       0       0       0
       0       0       0       0       0       0       0       0       0       0
       0       0       0       0       0       0       0       0       0       0
       0       0       0       0       0       0       0       0       0       0
       0       0       0       0       0       0       0       0       0       0
       0       0       0       0       0       0       0       0       0       0
       0       0       0       0       0       0       0       0       0       0
       0       0       0       0       0       0       0       0       0       0
       0       0       0       0       0       0       0       0       0       0
       0       0       0       0       0       0       0       0       0       0
       0       0       0       0       0       0       0       0       0       0
       0       0       0       0       0       0       0       0       0       0
       0       0       0       0       0       0       0       0       0       0
       0       0       0       0       0       0       0       0       0       0
       0       0       0       0       0       0       0       0       0       0
       0       0       0       0       0       0       0       0       0       0
       0       0       0       0       0       0       0       0       0       0
       0       0       0       0       0       0       0       0       0       0
       0       0       0       0       0       0       0       0       0       0
       0       0       0       0       0       0       0       0       0       0
       0       0       0       0       0       0       0       0       0       0
       0       0       0       0       0       0       0       0       0       0
       0       0       0       0       0       0       0       0       0       0
       0       0       0       0       0       0       0       0       0       0
       0       0       0       0       0       0       0       0       0       0
       0       0       0       0       0       0       0       0       0       0
       0       0       0       0       0       0       0       0       0       0
       0       0       0       0       0       0       0       0       0       0
       0       0       0       0       0       0       0       0       0       0
       0       0       0       0       0       0       0       0       0       0
       0       0       0       0       0       0       0       0       0       0
       0       0       0       0       0       0       0       0       0       0
       0       0       0       0       0       0       0       0       0       0
       0       0       0       0       0       0       0       0       0       0
       0       0       0       0       0       0       0       0       0       0
       0       0       0       0       0       0       0       0       0       0
       0       0       0       0       0       0       0       0       0       0
       0       0       0       0       0       0       0       0       0       0
       0       0       0       0       0       0       0       0       0       0
       0       0       0       0       0       0       0       0       0       0
       0       0       0       0       0       0       0       0       0       0
       0       0       0       0       0       0       0       0       0       0
       0       0       0       0       0       0       0       0       0       0
       0       0       0       0       0       0       0       0       0       0
       0       0       0       0       0       0       0       0       0       0
       0       0       0       0       0       0       0       0       0       0
       0       0       0       0       0       0       0       0       0       0
       0       0       0       0       0       0       0       0       0       0
       0       0       0       0       0       0       0       0       0       0
       0       0       0       0       0       0       0       0       0       0
       0       0       0       0       0       0       0       0       0       0
       0       0       0       0       0       0       0       0       0       0
       0       0       0       0       0       0       0       0       0       0
       0       0       0       0       0       0       0       0       0       0
       0       0       0       0       0       0       0       0       0       0
       0       0       0       0       0       0       0       0       0       0
       0       0       0       0       0       0       0       0       0       0
       0       0       0       0       0       0       0       0       0       0
       0       0       0       0       0       0       0       0       0       0
       0       0       0       0       0       0       0       0       0       0
       0       0       0       0       0       0       0       0       0       0
       0       0       0       0       0       0       0       0       0       0
       0       0       0       0       0       0       0       0       0       0
       0       0       0       0       0       0       0       0       0       0
       0       0       0       0       0       0       0       0       0       0
       0       0       0       0       0       0       0       0       0       0
       0       0       0       0       0       0       0       0       0       0
       0       0       0       0       0       0       0       0       0       0
       0       0       0       0       0       0       0       0       0       0
       0       0       0       0       0       0       0       0       0       0
       0       0       0       0       0       0       0       0       0       0
       0       0       0       0       0       0       0       0       0       0
       0       0       0       0       0       0       0       0       0       0
       0       0       0       0       0       0       0       0       0       0
       0       0       0       0       0       0       0       0       0       0
       0       0       0       0       0       0       0       0       0       0
       0       0       0       0       0       0       0       0       0       0
       0       0       0       0       0       0       0       0       0       0
       0       0       0       0       0       0       0       0       0       0
       0       0       0       0       0       0       0       0       0       0
       0       0       0       0       0       0       0       0       0       0
       0       0       0       0       0       0       0       0       0       0
       0       0       0       0       0       0       0       0       0       0
       0       0       0       0       0       0       0       0       0       0
       0       0       0       0       0       0       0       0       0       0
       0       0       0       0       0       0       0       0       0       0
       0       0       0       0       0       0       0       0       0       0
       0       0       0       0       0       0       0       0       0       0
       0       0       0       0       0       0       0       0       0       0
       0       0       0       0       0       0       0       0       0       0
       0       0       0       0       0       0       0       0       0       0
       0       0       0       0       0       0       0       0       0       0
       0       0       0       0       0       0       0       0       0       0
       0       0       0       0       0       0       0       0       0       0
       0       0       0       0       0       0       0       0       0       0
       0       0       0       0       0       0       0       0       0       0
       0       0       0       0       0       0       0       0       0       0
       0       0       0       0       0       0       0       0       0       0
       0       0       0       0       0       0       0       0       0       0
       0       0       0       0       0       0       0       0       0       0
       0       0       0       0       0       0       0       0       0       0
       0       0       0       0       0       0       0       0       0       0
       0       0       0       0       0       0       0       0       0       0
       0       0       0       0       0       0       0       0       0       0
       0       0       0       0       0       0       0       0       0       0
       0       0       0       0       0       0       0       0       0       0
       0       0       0       0       0       0       0       0       0       0
       0       0       0       0       0       0       0       0       0       0
       0       0       0       0       0       0       0       0       0       0
       0       0       0       0       0       0       0       0       0       0
       0       0       0       0       0       0       0       0       0       0
       0       0       0       0       0       0       0       0       0       0
       0       0       0       0       0       0       0       0       0       0
       0       0       0       0       0       0       0       0       0       0
       0       0       0       0       0       0       0       0       0       0
       0       0       0       0       0       0       0       0       0       0
       0       0       0       0       0       0       0       0       0       0
       0       0       0       0       0       0       0       0       0       0
       0       0       0       0       0       0       0       0       0       0
       0       0       0       0       0       0       0       0       0       0
       0       0       0       0       0       0       0       0       0       0
       0       0       0       0       0       0       0       0       0       0
       0       0       0       0       0       0       0       0       0       0
       0       0       0       0       0       0       0       0       0       0
       0       0       0       0       0       0       0       0       0       0
       0       0       0       0       0       0       0       0       0       0
       0       0       0       0       0       0       0       0       0       0
       0       0       0       0       0       0       0       0       0       0
       0       0       0       0       0       0       0       0       0       0
       0       0       0       0       0       0       0       0       0       0
       0       0       0       0       0       0       0       0       0       0
       0       0       0       0       0       0       0       0       0       0
       0       0       0       0       0       0       0       0       0       0
       0       0       0       0       0       0       0       0       0       0
       0       0       0       0       0       0       0       0       0       0
       0       0       0       0       0       0       0       0       0       0
       0       0       0       0       0       0       0       0       0       0
       0       0       0       0       0       0       0       0       0       0
       0       0       0       0       0       0       0       0       0       0
       0       0       0       0       0       0       0       0       0       0
       0       0       0       0       0       0       0       0       0       0
       0       0       0       0       0       0       0       0       0       0
       0       0       0       0       0       0       0       0       0       0
       0       0       0       0       0       0       0       0       0       0
       0       0       0       0       0       0       0       0       0       0
       0       0       0       0       0       0       0       0       0       0
       0       0       0       0       0       0       0       0       0       0
       0       0       0       0       0       0       0       0       0       0
       0       0       0       0       0       0       0       0       0       0
       0       0       0       0       0       0       0       0       0       0
       0       0       0       0       0       0       0       0       0       0
       0       0       0       0       0       0       0       0       0       0
       0       0       0       0       0       0       0       0       0       0
       0       0       0       0       0       0       0       0       0       0
       0       0       0       0       0       0       0       0       0       0
       0       0       0       0       0       0       0       0       0       0
       0       0       0       0       0       0       0       0       0       0
       0       0       0       0       0       0       0       0       0       0
       0       0       0       0       0       0       0       0       0       0
       0       0       0       0       0       0       0       0       0       0
       0       0       0       0       0       0       0       0       0       0
       0       0       0       0       0       0       0       0       0       0
       0       0       0       0       0       0       0       0       0       0
       0       0       0       0       0       0       0       0       0       0
       0       0       0       0       0       0       0       0       0       0
       0       0       0       0       0       0       0       0       0       0
       0       0       0       0       0       0       0       0       0       0
       0       0       0       0       0       0       0       0       0       0
       0       0       0       0       0       0       0       0       0       0
       0       0       0       0       0       0       0       0       0       0
       0       0       0       0       0       0       0       0       0       0
       0       0       0       0       0       0       0       0       0       0
       0       0       0       0       0       0       0       0       0       0
       0       0       0       0       0       0       0       0       0       0
       0       0       0       0       0       0       0       0       0       0
       0       0       0       0       0       0       0       0       0       0
       0       0       0       0       0       0       0       0       0       0
       0       0       0       0       0       0       0       0       0       0
       0       0       0       0       0       0       0       0       0       0
       0       0       0       0       0       0       0       0       0       0
       0       0       0       0       0       0       0       0       0       0
       0       0       0       0       0       0       0       0       0       0
       0       0       0       0       0       0       0       0       0       0
       0       0       0       0       0       0       0       0       0       0
       0       0       0       0       0       0       0       0       0       0
       0       0       0       0       0       0       0       0       0       0
       0       0       0       0       0       0       0       0       0       0
       0       0       0       0       0       0       0       0       0       0
       0       0       0       0       0       0       0       0       0       0
       0       0       0       0       0       0       0       0       0       0
       0       0       0       0       0       0       0       0       0       0
       0       0       0       0       0       0       0       0       0       0
       0       0       0       0       0       0       0       0       0       0
       0       0       0       0       0       0       0       0       0       0
       0       0       0       0       0       0       0       0       0       0
       0       0       0       0       0       0       0       0       0       0
       0       0       0       0       0       0       0       0       0       0
       0       0       0       0       0       0       0       0       0       0
       0       0       0       0       0       0       0       0       0       0
       0       0       0       0       0       0       0       0       0       0
       0       0       0       0       0       0       0       0       0       0
       0       0       0       0       0       0       0       0       0       0
       0       0       0       0       0       0       0       0       0       0
       0       0       0       0       0       0       0       0       0       0
       0       0       0       0       0       0       0       0       0       0
       0       0       0       0       0       0       0       0       0       0
       0       0       0       0       0       0       0       0       0       0
       0       0       0       0       0       0       0       0       0       0
       0       0       0       0       0       0       0       0       0       0
       0       0       0       0       0       0       0       0       0       0
       0       0       0       0       0       0       0       0       0       0
       0       0       0       0       0       0       0       0       0       0
       0       0       0       0       0       0       0       0       0       0
       0       0       0       0       0       0       0       0       0       0
       0       0       0       0       0       0       0       0       0       0
       0       0       0       0       0       0       0       0       0       0
       0       0       0       0       0       0       0       0       0       0
       0       0       0       0       0       0       0       0       0       0
       0       0       0       0       0       0       0       0       0       0
       0       0       0       0       0       0       0       0       0       0
       0       0       0       0       0       0       0       0       0       0
       0       0       0       0       0       0       0       0       0       0
       0       0       0       0       0       0       0       0       0       0
       0       0       0       0       0       0       0       0       0       0
       0       0       0       0       0       0       0       0       0       0
       0       0       0       0       0       0       0       0       0       0
       0       0       0       0       0       0       0       0       0       0
       0       0       0       0       0       0       0       0       0       0
       0       0       0       0       0       0       0       0       0       0
       0       0       0       0       0       0       0       0       0       0
       0       0       0       0       0       0       0       0       0       0
       0       0       0       0       0       0       0       0       0       0
       0       0       0       0       0       0       0       0       0       0
       0       0       0       0       0       0       0       0       0       0
       0       0       0       0       0       0       0       0       0       0
       0       0       0       0       0       0       0       0       0       0
       0       0       0       0       0       0       0       0       0       0
       0       0       0       0       0       0       0       0       0       0
       0       0       0       0       0       0       0       0       0       0
       0       0       0       0       0       0       0       0       0       0
       0       0       0       0       0       0       0       0       0       0
       0       0       0       0       0       0       0       0       0       0
       0       0       0       0       0       0       0       0       0       0
       0       0       0       0       0       0       0       0       0       0
       0       0       0       0       0       0       0       0       0       0
       0       0       0       0       0       0       0       0       0       0
       0       0       0       0       0       0       0       0       0       0
       0       0       0       0       0       0       0       0       0       0
       0       0       0       0       0       0       0       0       0       0
       0       0       0       0       0       0       0       0       0       0
       0       0       0       0       0       0       0       0       0       0
       0       0       0       0       0       0       0       0       0       0
       0       0       0       0       0       0       0       0       0       0
       0       0       0       0       0       0       0       0       0       0
       0       0       0       0       0       0       0       0       0       0
       0       0       0       0       0       0       0       0       0       0
       0       0       0       0       0       0       0       0       0       0
       0       0       0       0       0       0       0       0       0       0
       0       0       0       0       0       0       0       0       0       0
       0       0       0       0       0       0       0       0       0       0
       0       0       0       0       0       0       0       0       0       0
       0       0       0       0       0       0       0       0       0       0
       0       0       0       0       0       0       0       0       0       0
       0       0       0       0       0       0       0       0       0       0
       0       0       0       0       0       0       0       0       0       0
       0       0       0       0       0       0       0       0       0       0
       0       0       0       0       0       0       0       0       0       0
       0       0       0       0       0       0       0       0       0       0
       0       0       0       0       0       0       0       0       0       0
       0       0       0       0       0       0       0       0       0       0
       0       0       0       0       0       0       0       0       0       0
       0       0       0       0       0       0       0       0       0       0
       0       0       0       0       0       0       0       0       0       0
       0       0       0       0       0       0       0       0       0       0
       0       0       0       0       0       0       0       0       0       0
       0       0       0       0       0       0       0       0       0       0
       0       0       0       0       0       0       0       0       0       0
       0       0       0       0       0       0       0       0       0       0
       0       0       0       0       0       0       0       0       0       0
       0       0       0       0       0       0       0       0       0       0
       0       0       0       0       0       0       0       0       0       0
       0       0       0       0       0       0       0       0       0       0
       0       0       0       0       0       0       0       0       0       0
       0       0       0       0       0       0       0       0       0       0
       0       0       0       0       0       0       0       0       0       0
       0       0       0       0       0       0       0       0       0       0
       0       0       0       0       0       0       0       0       0       0
       0       0       0       0       0       0       0       0       0       0
       0       0       0       0       0       0       0       0       0       0
       0       0       0       0       0       0       0       0       0       0
       0       0       0       0       0       0       0       0       0       0
       0       0       0       0       0       0       0       0       0       0
       0       0       0       0       0       0       0       0       0       0
       0       0       0       0       0       0       0       0       0       0
       0       0       0       0       0       0       0       0       0       0
       0       0       0       0       0       0       0       0       0       0
       0       0       0       0       0       0       0       0       0       0
       0       0       0       0       0       0       0       0       0       0
       0       0       0       0       0       0       0       0       0       0
       0       0       0       0       0       0       0       0       0       0
       0       0       0       0       0       0       0       0       0       0
       0       0       0       0       0       0       0       0       0       0
       0       0       0       0       0       0       0       0       0       0
       0       0       0       0       0       0       0       0       0       0
       0       0       0       0       0       0       0       0       0       0
       0       0       0       0       0       0       0       0       0       0
       0       0       0       0       0       0       0       0       0       0
       0       0       0       0       0       0       0       0       0       0
       0       0       0       0       0       0       0       0       0       0
       0       0       0       0       0       0       0       0       0       0
       0       0       0       0       0       0       0       0       0       0
       0       0       0       0       0       0       0       0       0       0
       0       0       0       0       0       0       0       0       0       0
       0       0       0       0       0       0       0       0       0       0
       0       0       0       0       0       0       0       0       0       0
       0       0       0       0       0       0       0       0       0       0
       0       0       0       0       0       0       0       0       0       0
       0       0       0       0       0       0       0       0       0       0
       0       0       0       0       0       0       0       0       0       0
       0       0       0       0       0       0       0       0       0       0
       0       0       0       0       0       0       0       0       0       0
       0       0       0       0       0       0       0       0       0       0
       0       0       0       0       0       0       0       0       0       0
       0       0       0       0       0       0       0       0       0       0
       0       0       0       0       0       0       0       0       0       0
       0       0       0       0       0       0       0       0       0       0
       0       0       0       0       0       0       0       0       0       0
       0       0       0       0       0       0       0       0       0       0
       0       0       0       0       0       0       0       0       0       0
       0       0       0       0       0       0       0       0       0       0
       0       0       0       0       0       0       0       0       0       0
       0       0       0       0       0       0       0       0       0       0
       0       0       0       0       0       0       0       0       0       0
       0       0       0       0       0       0       0       0       0       0
       0       0       0       0       0       0       0       0       0       0
       0       0       0       0       0       0       0       0       0       0
       0       0       0       0       0       0       0       0       0       0
       0       0       0       0       0       0       0       0       0       0
       0       0       0       0       0       0       0       0       0       0
       0       0       0       0       0       0       0       0       0       0
       0       0       0       0       0       0       0       0       0       0
       0       0       0       0       0       0       0       0       0       0
       0       0       0       0       0       0       0       0       0       0
       0       0       0       0       0       0       0       0       0       0
       0       0       0       0       0       0       0       0       0       0
       0       0       0       0       0       0       0       0       0       0
       0       0       0       0       0       0       0       0       0       0
       0       0       0       0       0       0       0       0       0       0
       0       0       0       0       0       0       0       0       0       0
       0       0       0       0       0       0       0       0       0       0
       0       0       0       0       0       0       0       0       0       0
       0       0       0       0       0       0       0       0       0       0
       0       0       0       0       0       0       0       0       0       0
       0       0       0       0       0       0       0       0       0       0
       0       0       0       0       0       0       0       0       0       0
       0       0       0       0       0       0       0       0       0       0
       0       0       0       0       0       0       0       0       0       0
       0       0       0       0       0       0       0       0       0       0
       0       0       0       0       0       0       0       0       0       0
       0       0       0       0       0       0       0       0       0       0
       0       0       0       0       0       0       0       0       0       0
       0       0       0       0       0       0       0       0       0       0
       0       0       0       0       0       0       0       0       0       0
       0       0       0       0       0       0       0       0       0       0
       0       0       0       0       0       0       0       0       0       0
       0       0       0       0       0       0       0       0       0       0
       0       0       0       0       0       0       0       0       0       0
       0       0       0       0       0       0       0       0       0       0
       0       0       0       0       0       0       0       0       0       0
       0       0       0       0       0       0       0       0       0       0
       0       0       0       0       0       0       0       0       0       0
       0       0       0       0       0       0       0       0       0       0
       0       0       0       0       0       0       0       0       0       0
       0       0       0       0       0       0       0       0       0       0
       0       0       0       0       0       0       0       0       0       0
       0       0       0       0       0       0       0       0       0       0
       0       0       0       0       0       0       0       0       0       0
       0       0       0       0       0       0       0       0       0       0
       0       0       0       0       0       0       0       0       0       0
       0       0       0       0       0       0       0       0       0       0
       0       0       0       0       0       0       0       0       0       0
       0       0       0       0       0       0       0       0       0       0
       0       0       0       0       0       0       0       0       0       0
       0       0       0       0       0       0       0       0       0       0
       0       0       0       0       0       0       0       0       0       0
       0       0       0       0       0       0       0       0       0       0
       0       0       0       0       0       0       0       0       0       0
       0       0       0       0       0       0       0       0       0       0
       0       0       0       0       0       0       0       0       0       0
       0       0       0       0       0       0       0       0       0       0
       0       0       0       0       0       0       0       0       0       0
       0       0       0       0       0       0       0       0       0       0
       0       0       0       0       0       0       0       0       0       0
       0       0       0       0       0       0       0       0       0       0
       0       0       0       0       0       0       0       0       0       0
       0       0       0       0       0       0       0       0       0       0
       0       0       0       0       0       0       0       0       0       0
       0       0       0       0       0       0       0       0       0       0
       0       0       0       0       0       0       0       0       0       0
       0       0       0       0       0       0       0       0       0       0
       0       0       0       0       0       0       0       0       0       0
       0       0       0       0       0       0       0       0       0       0
       0       0       0       0       0       0       0       0       0       0
       0       0       0       0       0       0       0       0       0       0
       0       0       0       0       0       0       0       0       0       0
       0       0       0       0       0       0       0       0       0       0
       0       0       0       0       0       0       0       0       0       0
       0       0       0       0       0       0       0       0       0       0
       0       0       0       0       0       0       0       0       0       0
       0       0       0       0       0       0       0       0       0       0
       0       0       0       0       0       0       0       0       0       0
       0       0       0       0       0       0       0       0       0       0
       0       0       0       0       0       0       0       0       0       0
       0       0       0       0       0       0       0       0       0       0
       0       0       0       0       0       0       0       0       0       0
       0       0       0       0       0       0       0       0       0       0
       0       0       0       0       0       0       0       0       0       0
       0       0       0       0       0       0       0       0       0       0
       0       0       0       0       0       0       0       0       0       0
       0       0       0       0       0       0       0       0       0       0
       0       0       0       0       0       0       0       0       0       0
       0       0       0       0       0       0       0       0       0       0
       0       0       0       0       0       0       0       0       0       0
       0       0       0       0       0       0       0       0       0       0
       0       0       0       0       0       0       0       0       0       0
       0       0       0       0       0       0       0       0       0       0
       0       0       0       0       0       0       0       0       0       0
       0       0       0       0       0       0       0       0       0       0
       0       0       0       0       0       0       0       0       0       0
       0       0       0       0       0       0       0       0       0       0
       0       0       0       0       0       0       0       0       0       0
       0       0       0       0       0       0       0       0       0       0
       0       0       0       0       0       0       0       0       0       0
       0       0       0       0       0       0       0       0       0       0
       0       0       0       0       0       0       0       0       0       0
       0       0       0       0       0       0       0       0       0       0
       0       0       0       0       0       0       0       0       0       0
       0       0       0       0       0       0       0       0       0       0
       0       0       0       0       0       0       0       0       0       0
       0       0       0       0       0       0       0       0       0       0
       0       0       0       0       0       0       0       0       0       0
       0       0       0       0       0       0       0       0       0       0
       0       0       0       0       0       0       0       0       0       0
       0       0       0       0       0       0       0       0       0       0
       0       0       0       0       0       0       0       0       0       0
       0       0       0       0       0       0       0       0       0       0
       0       0       0       0       0       0       0       0       0       0
       0       0       0       0       0       0       0       0       0       0
       0       0       0       0       0       0       0       0       0       0
       0       0       0       0       0       0       0       0       0       0
       0       0       0       0       0       0       0       0       0       0
       0       0       0       0       0       0       0       0       0       0
       0       0       0       0       0       0       0       0       0       0
       0       0       0       0       0       0       0       0       0       0
       0       0       0       0       0       0       0       0       0       0
       0       0       0       0       0       0       0       0       0       0
       0       0       0       0       0       0       0       0       0       0
       0       0       0       0       0       0       0       0       0       0
       0       0       0       0       0       0       0       0       0       0
       0       0       0       0       0       0       0       0       0       0
       0       0       0       0       0       0       0       0       0       0
       0       0       0       0       0       0       0       0       0       0
       0       0       0       0       0       0       0       0       0       0
       0       0       0       0       0       0       0       0       0       0
       0       0       0       0       0       0       0       0       0       0
       0       0       0       0       0       0       0       0       0       0
       0       0       0       0       0       0       0       0       0       0
       0       0       0       0       0       0       0       0       0       0
       0       0       0       0       0       0       0       0       0       0
       0       0       0       0       0       0       0       0       0       0
       0       0       0       0       0       0       0       0       0       0
       0       0       0       0       0       0       0       0       0       0
       0       0       0       0       0       0       0       0       0       0
       0       0       0       0       0       0       0       0       0       0
       0       0       0       0       0       0       0       0       0       0
       0       0       0       0       0       0       0       0       0       0
       0       0       0       0       0       0       0       0       0       0
       0       0       0       0       0       0       0       0       0       0
       0       0       0       0       0       0       0       0       0       0
       0       0       0       0       0       0       0       0       0       0
       0       0       0       0       0       0       0       0       0       0
       0       0       0       0       0       0       0       0       0       0
       0       0       0       0       0       0       0       0       0       0
       0       0       0       0       0       0       0       0       0       0
       0       0       0       0       0       0       0       0       0       0
       0       0       0       0       0       0       0       0       0       0
       0       0       0       0       0       0       0       0       0       0
       0       0       0       0       0       0       0       0       0       0
       0       0       0       0       0       0       0       0       0       0
       0       0       0       0       0       0       0       0       0       0
       0       0       0       0       0       0       0       0       0       0
       0       0       0       0       0       0       0       0       0       0
       0       0       0       0       0       0       0       0       0       0
       0       0       0       0       0       0       0       0       0       0
       0       0       0       0       0       0       0       0       0       0
       0       0       0       0       0       0       0       0       0       0
       0       0       0       0       0       0       0       0       0       0
       0       0       0       0       0       0       0       0       0       0
       0       0       0       0       0       0       0       0       0       0
       0       0       0       0       0       0       0       0       0       0
       0       0       0       0       0       0       0       0       0       0
       0       0       0       0       0       0       0       0       0       0
       0       0       0       0       0       0       0       0       0       0
       0       0       0       0       0       0       0       0       0       0
       0       0       0       0       0       0       0       0       0       0
       0       0       0       0       0       0       0       0       0       0
       0       0       0       0       0       0       0       0       0       0
       0       0       0       0       0       0       0       0       0       0
       0       0       0       0       0       0       0       0       0       0
       0       0       0       0       0       0       0       0       0       0
       0       0       0       0       0       0       0       0       0       0
       0       0       0       0       0       0       0       0       0       0
       0       0       0       0       0       0       0       0       0       0
       0       0       0       0       0       0       0       0       0       0
       0       0       0       0       0       0       0       0       0       0
       0       0       0       0       0       0       0       0       0       0
       0       0       0       0       0       0       0       0       0       0
       0       0       0       0       0       0       0       0       0       0
       0       0       0       0       0       0       0       0       0       0
       0       0       0       0       0       0       0       0       0       0
       0       0       0       0       0       0       0       0       0       0
       0       0       0       0       0       0       0       0       0       0
       0       0       0       0       0       0       0       0       0       0
       0       0       0       0       0       0       0       0       0       0
       0       0       0       0       0       0       0       0       0       0
       0       0       0       0       0       0       0       0       0       0
       0       0       0       0       0       0       0       0       0       0
       0       0       0       0       0       0       0       0       0       0
       0       0       0       0       0       0       0       0       0       0
       0       0       0       0       0       0       0       0       0       0
       0       0       0       0       0       0       0       0       0       0
       0       0       0       0       0       0       0       0       0       0
       0       0       0       0       0       0       0       0       0       0
       0       0       0       0       0       0       0       0       0       0
       0       0       0       0       0       0       0       0       0       0
       0       0       0       0       0       0       0       0       0       0
       0       0       0       0       0       0       0       0       0       0
       0       0       0       0       0       0       0       0       0       0
       0       0       0       0       0       0       0       0       0       0
       0       0       0       0       0       0       0       0       0       0
       0       0       0       0       0       0       0       0       0       0
       0       0       0       0       0       0       0       0       0       0
       0       0       0       0       0       0       0       0       0       0
       0       0       0       0       0       0       0       0       0       0
       0       0       0       0       0       0       0       0       0       0
       0       0       0       0       0       0       0       0       0       0
       0       0       0       0       0       0       0       0       0       0
       0       0       0       0       0       0       0       0       0       0
       0       0       0       0       0       0       0       0       0       0
       0       0       0       0       0       0       0       0       0       0
       0       0       0       0       0       0       0       0       0       0
       0       0       0       0       0       0       0       0       0       0
       0       0       0       0       0       0       0       0       0       0
       0       0       0       0       0       0       0       0       0       0
       0       0       0       0       0       0       0       0       0       0
       0       0       0       0       0       0       0       0       0       0
       0       0       0       0       0       0       0       0       0       0
       0       0       0       0       0       0       0       0       0       0
       0       0       0       0       0       0       0       0       0       0
       0       0       0       0       0       0       0       0       0       0
       0       0       0       0       0       0       0       0       0       0
       0       0       0       0       0       0       0       0       0       0
       0       0       0       0       0       0       0       0       0       0
       0       0       0       0       0       0       0       0       0       0
       0       0       0       0       0       0       0       0       0       0
       0       0       0       0       0       0       0       0       0       0
       0       0       0       0       0       0       0       0       0       0
       0       0       0       0       0       0       0       0       0       0
       0       0       0       0       0       0       0       0       0       0
       0       0       0       0       0       0       0       0       0       0
       0       0       0       0       0       0       0       0       0       0
       0       0       0       0       0       0       0       0       0       0
       0       0       0       0       0       0       0       0       0       0
       0       0       0       0       0       0       0       0       0       0
       0       0       0       0       0       0       0       0       0       0
       0       0       0       0       0       0       0       0       0       0
       0       0       0       0       0       0       0       0       0       0
       0       0       0       0       0       0       0       0       0       0
       0       0       0       0       0       0       0       0       0       0
       0       0       0       0       0       0       0       0       0       0
       0       0       0       0       0       0       0       0       0       0
       0       0       0       0       0       0       0       0       0       0
       0       0       0       0       0       0       0       0       0       0
       0       0       0       0       0       0       0       0       0       0
       0       0       0       0       0       0       0       0       0       0
       0       0       0       0       0       0       0       0       0       0
       0       0       0       0       0       0       0       0       0       0
       0       0       0       0       0       0       0       0       0       0
       0       0       0       0       0       0       0       0       0       0
       0       0       0       0       0       0       0       0       0       0
       0       0       0       0       0       0       0       0       0       0
       0       0       0       0       0       0       0       0       0       0
       0       0       0       0       0       0       0       0       0       0
       0       0       0       0       0       0       0       0       0       0
       0       0       0       0       0       0       0       0       0       0
       0       0       0       0       0       0       0       0       0       0
       0       0       0       0       0       0       0       0       0       0
       0       0       0       0       0       0       0       0       0       0
       0       0       0       0       0       0       0       0       0       0
       0       0       0       0       0       0       0       0       0       0
       0       0       0       0       0       0       0       0       0       0
       0       0       0       0       0       0       0       0       0       0
       0       0       0       0       0       0       0       0       0       0
       0       0       0       0       0       0       0       0       0       0
       0       0       0       0       0       0       0       0       0       0
       0       0       0       0       0       0       0       0       0       0
       0       0       0       0       0       0       0       0       0       0
       0       0       0       0       0       0       0       0       0       0
       0       0       0       0       0       0       0       0       0       0
       0       0       0       0       0       0       0       0       0       0
       0       0       0       0       0       0       0       0       0       0
       0       0       0       0       0       0       0       0       0       0
       0       0       0       0       0       0       0       0       0       0
       0       0       0       0       0       0       0       0       0       0
       0       0       0       0       0       0       0       0       0       0
       0       0       0       0       0       0       0       0       0       0
       0       0       0       0       0       0       0       0       0       0
       0       0       0       0       0       0       0       0       0       0
       0       0       0       0       0       0       0       0       0       0
       0       0       0       0       0       0       0       0       0       0
       0       0       0       0       0       0       0       0       0       0
       0       0       0       0       0       0       0       0       0       0
       0       0       0       0       0       0       0       0       0       0
       0       0       0       0       0       0       0       0       0       0
       0       0       0       0       0       0       0       0       0       0
       0       0       0       0       0       0       0       0       0       0
       0       0       0       0       0       0       0       0       0       0
       0       0       0       0       0       0       0       0       0       0
       0       0       0       0       0       0       0       0       0       0
       0       0       0       0       0       0       0       0       0       0
       0       0       0       0       0       0       0       0       0       0
       0       0       0       0       0       0       0       0       0       0
       0       0       0       0       0       0       0       0       0       0
       0       0       0       0       0       0       0       0       0       0
       0       0       0       0       0       0       0       0       0       0
       0       0       0       0       0       0       0       0       0       0
       0       0       0       0       0       0       0       0       0       0
       0       0       0       0       0       0       0       0       0       0
       0       0       0       0       0       0       0       0       0       0
       0       0       0       0       0       0       0       0       0       0
       0       0       0       0       0       0       0       0       0       0
       0       0       0       0       0       0       0       0       0       0
       0       0       0       0       0       0       0       0       0       0
       0       0       0       0       0       0       0       0       0       0
       0       0       0       0       0       0       0       0       0       0
       0       0       0       0       0       0       0       0       0       0
       0       0       0       0       0       0       0       0       0       0
       0       0       0       0       0       0       0       0       0       0
       0       0       0       0       0       0       0       0       0       0
       0       0       0       0       0       0       0       0       0       0
       0       0       0       0       0       0       0       0       0       0
       0       0       0       0       0       0       0       0       0       0
       0       0       0       0       0       0       0       0       0       0
       0       0       0       0       0       0       0       0       0       0
       0       0       0       0       0       0       0       0       0       0
       0       0       0       0       0       0       0       0       0       0
       0       0       0       0       0       0       0       0       0       0
       0       0       0       0       0       0       0       0       0       0
       0       0       0       0       0       0       0       0       0       0
       0       0       0       0       0       0       0       0       0       0
       0       0       0       0       0       0       0       0       0       0
       0       0       0       0       0       0       0       0       0       0
       0       0       0       0       0       0       0       0       0       0
       0       0       0       0       0       0       0       0       0       0
       0       0       0       0       0       0       0       0       0       0
       0       0       0       0       0       0       0       0       0       0
       0       0       0       0       0       0       0       0       0       0
       0       0       0       0       0       0       0       0       0       0
       0       0       0       0       0       0       0       0       0       0
       0       0       0       0       0       0       0       0       0       0
       0       0       0       0       0       0       0       0       0       0
       0       0       0       0       0       0       0       0       0       0
       0       0       0       0       0       0       0       0       0       0
       0       0       0       0       0       0       0       0       0       0
       0       0       0       0       0       0       0       0       0       0
       0       0       0       0       0       0       0       0       0       0
       0       0       0       0       0       0       0       0       0       0
       0       0       0       0       0       0       0       0       0       0
       0       0       0       0       0       0       0       0       0       0
       0       0       0       0       0       0       0       0       0       0
       0       0       0       0       0       0       0       0       0       0
       0       0       0       0       0       0       0       0       0       0
       0       0       0       0       0       0       0       0       0       0
       0       0       0       0       0       0       0       0       0       0
       0       0       0       0       0       0       0       0       0       0
       0       0       0       0       0       0       0       0       0       0
       0       0       0       0       0       0       0       0       0       0
       0       0       0       0       0       0       0       0       0       0
       0       0       0       0       0       0       0       0       0       0
       0       0       0       0       0       0       0       0       0       0
       0       0       0       0       0       0       0       0       0       0
       0       0       0       0       0       0       0       0       0       0
       0       0       0       0       0       0       0       0       0       0
       0       0       0       0       0       0       0       0       0       0
       0       0       0       0       0       0       0       0       0       0
       0       0       0       0       0       0       0       0       0       0
       0       0       0       0       0       0       0       0       0       0
       0       0       0       0       0       0       0       0       0       0
       0       0       0       0       0       0       0       0       0       0
       0       0       0       0       0       0       0       0       0       0
       0       0       0       0       0       0       0       0       0       0
       0       0       0       0       0       0       0       0       0       0
       0       0       0       0       0       0       0       0       0       0
       0       0       0       0       0       0       0       0       0       0
       0       0       0       0       0       0       0       0       0       0
       0       0       0       0       0       0       0       0       0       0
       0       0       0       0       0       0       0       0       0       0
       0       0       0       0       0       0       0       0       0       0
       0       0       0       0       0       0       0       0       0       0
       0       0       0       0       0       0       0       0       0       0
       0       0       0       0       0       0       0       0       0       0
       0       0       0       0       0       0       0       0       0       0
       0       0       0       0       0       0       0       0       0       0
       0       0       0       0       0       0       0       0       0       0
       0       0       0       0       0       0       0       0       0       0
       0       0       0       0       0       0       0       0       0       0
       0       0       0       0       0       0       0       0       0       0
       0       0       0       0       0       0       0       0       0       0
       0       0       0       0       0       0       0       0       0       0
       0       0       0       0       0       0       0       0       0       0
       0       0       0       0       0       0       0       0       0       0
       0       0       0       0       0       0       0       0       0       0
       0       0       0       0       0       0       0       0       0       0
       0       0       0       0       0       0       0       0       0       0
       0       0       0       0       0       0       0       0       0       0
       0       0       0       0       0       0       0       0       0       0
       0       0       0       0       0       0       0       0       0       0
       0       0       0       0       0       0       0       0       0       0
       0       0       0       0       0       0       0       0       0       0
       0       0       0       0       0       0       0       0       0       0
       0       0       0       0       0       0       0       0       0       0
       0       0       0       0       0       0       0       0       0       0
       0       0       0       0       0       0       0       0       0       0
       0       0       0       0       0       0       0       0       0       0
       0       0       0       0       0       0       0       0       0       0
       0       0       0       0       0       0       0       0       0       0
       0       0       0       0       0       0       0       0       0       0
       0       0       0       0       0       0       0       0       0       0
       0       0       0       0       0       0       0       0       0       0
       0       0       0       0       0       0       0       0       0       0
       0       0       0       0       0       0       0       0       0       0
       0       0       0       0       0       0       0       0       0       0
       0       0       0       0       0       0       0       0       0       0
       0       0       0       0       0       0       0       0       0       0
       0       0       0       0       0       0       0       0       0       0
       0       0       0       0       0       0       0       0       0       0
       0       0       0       0       0       0       0       0       0       0
       0       0       0       0       0       0       0       0       0       0
       0       0       0       0       0       0       0       0       0       0
       0       0       0       0       0       0       0       0       0       0
       0       0       0       0       0       0       0       0       0       0
       0       0       0       0       0       0       0       0       0       0
       0       0       0       0       0       0       0       0       0       0
       0       0       0       0       0       0       0       0       0       0
       0       0       0       0       0       0       0       0       0       0
       0       0       0       0       0       0       0       0       0       0
       0       0       0       0       0       0       0       0       0       0
       0       0       0       0       0       0       0       0       0       0
       0       0       0       0       0       0       0       0       0       0
       0       0       0       0       0       0       0       0       0       0
       0       0       0       0       0       0       0       0       0       0
       0       0       0       0       0       0       0       0       0       0
       0       0       0       0       0       0       0       0       0       0
       0       0       0       0       0       0       0       0       0       0
       0       0       0       0       0       0       0       0       0       0
       0       0       0       0       0       0       0       0       0       0
       0       0       0       0       0       0       0       0       0       0
       0       0       0       0       0       0       0       0       0       0
       0       0       0       0       0       0       0       0       0       0
       0       0       0       0       0       0       0       0       0       0
       0       0       0       0       0       0       0       0       0       0
       0       0       0       0       0       0       0       0       0       0
       0       0       0       0       0       0       0       0       0       0
       0       0       0       0       0       0       0       0       0       0
       0       0       0       0       0       0       0       0       0       0
       0       0       0       0       0       0       0       0       0       0
       0       0       0       0       0       0       0       0       0       0
       0       0       0       0       0       0       0       0       0       0
       0       0       0       0       0       0       0       0       0       0
       0       0       0       0       0       0       0       0       0       0
       0       0       0       0       0       0       0       0       0       0
       0       0       0       0       0       0       0       0       0       0
       0       0       0       0       0       0       0       0       0       0
       0       0       0       0       0       0       0       0       0       0
       0       0       0       0       0       0       0       0       0       0
       0       0       0       0       0       0       0       0       0       0
       0       0       0       0       0       0       0       0       0       0
       0       0       0       0       0       0       0       0       0       0
       0       0       0       0       0       0       0       0       0       0
       0       0       0       0       0       0       0       0       0       0
       0       0       0       0       0       0       0       0       0       0
       0       0       0       0       0       0       0       0       0       0
       0       0       0       0       0       0       0       0       0       0
       0       0       0       0       0       0       0       0       0       0
       0       0       0       0       0       0       0       0       0       0
       0       0       0       0       0       0       0       0       0       0
       0       0       0       0       0       0       0       0       0       0
       0       0       0       0       0       0       0       0       0       0
       0       0       0       0       0       0       0       0       0       0
       0       0       0       0       0       0       0       0       0       0
       0       0       0       0       0       0       0       0       0       0
       0       0       0       0       0       0       0       0       0       0
       0       0       0       0       0       0       0       0       0       0
       0       0       0       0       0       0       0       0       0       0
       0       0       0       0       0       0       0       0       0       0
       0       0       0       0       0       0       0       0       0       0
       0       0       0       0       0       0       0       0       0       0
       0       0       0       0       0       0       0       0       0       0
       0       0       0       0       0       0       0       0       0       0
       0       0       0       0       0       0       0       0       0       0
       0       0       0       0       0       0       0       0       0       0
       0       0       0       0       0       0       0       0       0       0
       0       0       0       0       0       0       0       0       0       0
       0       0       0       0       0       0       0       0       0       0
       0       0       0       0       0       0       0       0       0       0
       0       0       0       0       0       0       0       0       0       0
       0       0       0       0       0       0       0       0       0       0
       0       0       0       0       0       0       0       0       0       0
       0       0       0       0       0       0       0       0       0       0
       0       0       0       0       0       0       0       0       0       0
       0       0       0       0       0       0       0       0       0       0
       0       0       0       0       0       0       0       0       0       0
       0       0       0       0       0       0       0       0       0       0
       0       0       0       0       0       0       0       0       0       0
       0       0       0       0       0       0       0       0       0       0
       0       0       0       0       0       0       0       0       0       0
       0       0       0       0       0       0       0       0       0       0
       0       0       0       0       0       0       0       0       0       0
       0       0       0       0       0       0       0       0       0       0
       0       0       0       0       0       0       0       0       0       0
       0       0       0       0       0       0       0       0       0       0
       0       0       0       0       0       0       0       0       0       0
       0       0       0       0       0       0       0       0       0       0
       0       0       0       0       0       0       0       0       0       0
       0       0       0       0       0       0       0       0       0       0
       0       0       0       0       0       0       0       0       0       0
       0       0       0       0       0       0       0       0       0       0
       0       0       0       0       0       0       0       0       0       0
       0       0       0       0       0       0       0       0       0       0
       0       0       0       0       0       0       0       0       0       0
       0       0       0       0       0       0       0       0       0       0
       0       0       0       0       0       0       0       0       0       0
       0       0       0       0       0       0       0       0       0       0
       0       0       0       0       0       0       0       0       0       0
       0       0       0       0       0       0       0       0       0       0
       0       0       0       0       0       0       0       0       0       0
       0       0       0       0       0       0       0       0       0       0
       0       0       0       0       0       0       0       0       0       0
       0       0       0       0       0       0       0       0       0       0
       0       0       0       0       0       0       0       0       0       0
       0       0       0       0       0       0       0       0       0       0
       0       0       0       0       0       0       0       0       0       0
       0       0       0       0       0       0       0       0       0       0
       0       0       0       0       0       0       0       0       0       0
       0       0       0       0       0       0       0       0       0       0
       0       0       0       0       0       0       0       0       0       0
       0       0       0       0       0       0       0       0       0       0
       0       0       0       0       0       0       0       0       0       0
       0       0       0       0       0       0       0       0       0       0
       0       0       0       0       0       0       0       0       0       0
       0       0       0       0       0       0       0       0       0       0
       0       0       0       0       0       0       0       0       0       0
       0       0       0       0       0       0       0       0       0       0
       0       0       0       0       0       0       0       0       0       0
       0       0       0       0       0       0       0       0       0       0
       0       0       0       0       0       0       0       0       0       0
       0       0       0       0       0       0       0       0       0       0
       0       0       0       0       0       0       0       0       0       0
       0       0       0       0       0       0       0       0       0       0
       0       0       0       0       0       0       0       0       0       0
       0       0       0       0       0       0       0       0       0       0
       0       0       0       0       0       0       0       0       0       0
       0       0       0       0       0       0       0       0       0       0
       0       0       0       0       0       0       0       0       0       0
       0       0       0       0       0       0       0       0       0       0
       0       0       0       0       0       0       0       0       0       0
       0       0       0       0       0       0       0       0       0       0
       0       0       0       0       0       0       0       0       0       0
       0       0       0       0       0       0       0       0       0       0
       0       0       0       0       0       0       0       0       0       0
       0       0       0       0       0       0       0       0       0       0
       0       0       0       0       0       0       0       0       0       0
       0       0       0       0       0       0       0       0       0       0
       0       0       0       0       0       0       0       0       0       0
       0       0       0       0       0       0       0       0       0       0
       0       0       0       0       0       0       0       0       0       0
       0       0       0       0       0       0       0       0       0       0
       0       0       0       0       0       0       0       0       0       0
       0       0       0       0       0       0       0       0       0       0
       0       0       0       0       0       0       0       0       0       0
       0       0       0       0       0       0       0       0       0       0
       0       0       0       0       0       0       0       0       0       0
       0       0       0       0       0       0       0       0       0       0
       0       0       0       0       0       0       0       0       0       0
       0       0       0       0       0       0       0       0       0       0
       0       0       0       0       0       0       0       0       0       0
       0       0       0       0       0       0       0       0       0       0
       0       0       0       0       0       0       0       0       0       0
       0       0       0       0       0       0       0       0       0       0
       0       0       0       0       0       0       0       0       0       0
       0       0       0       0       0       0       0       0       0       0
       0       0       0       0       0       0       0       0       0       0
       0       0       0       0       0       0       0       0       0       0
       0       0       0       0       0       0       0       0       0       0
       0       0       0       0       0       0       0       0       0       0
       0       0       0       0       0       0       0       0       0       0
       0       0       0       0       0       0       0       0       0       0
       0       0       0       0       0       0       0       0       0       0
       0       0       0       0       0       0       0       0       0       0
       0       0       0       0       0       0       0       0       0       0
       0       0       0       0       0       0       0       0       0       0
       0       0       0       0       0       0       0       0       0       0
       0       0       0       0       0       0       0       0       0       0
       0       0       0       0       0       0       0       0       0       0
       0       0       0       0       0       0       0       0       0       0
       0       0       0       0       0       0       0       0       0       0
       0       0       0       0       0       0       0       0       0       0
       0       0       0       0       0       0       0       0       0       0
       0       0       0       0       0       0       0       0       0       0
       0       0       0       0       0       0       0       0       0       0
       0       0       0       0       0       0       0       0       0       0
       0       0       0       0       0       0       0       0       0       0
       0       0       0       0       0       0       0       0       0       0
       0       0       0       0       0       0       0       0       0       0
       0       0       0       0       0       0       0       0       0       0
       0       0       0       0       0       0       0       0       0       0
       0       0       0       0       0       0       0       0       0       0
       0       0       0       0       0       0       0       0       0       0
       0       0       0       0       0       0       0       0       0       0
       0       0       0       0       0       0       0       0       0       0
       0       0       0       0       0       0       0       0       0       0
       0       0       0       0       0       0       0       0       0       0
       0       0       0       0       0       0       0       0       0       0
       0       0       0       0       0       0       0       0       0       0
       0       0       0       0       0       0       0       0       0       0
       0       0       0       0       0       0       0       0       0       0
       0       0       0       0       0       0       0       0       0       0
       0       0       0       0       0       0       0       0       0       0
       0       0       0       0       0       0       0       0       0       0
       0       0       0       0       0       0       0       0       0       0
       0       0       0       0       0       0       0       0       0       0
       0       0       0       0       0       0       0       0       0       0
       0       0       0       0       0       0       0       0       0       0
       0       0       0       0       0       0       0       0       0       0
       0       0       0       0       0       0       0       0       0       0
       0       0       0       0       0       0       0       0       0       0
       0       0       0       0       0       0       0       0       0       0
       0       0       0       0       0       0       0       0       0       0
       0       0       0       0       0       0       0       0       0       0
       0       0       0       0       0       0       0       0       0       0
       0       0       0       0       0       0       0       0       0       0
       0       0       0       0       0       0       0       0       0       0
       0       0       0       0       0       0       0       0       0       0
       0       0       0       0       0       0       0       0       0       0
       0       0       0       0       0       0       0       0       0       0
       0       0       0       0       0       0       0       0       0       0
       0       0       0       0       0       0       0       0       0       0
       0       0       0       0       0       0       0       0       0       0
       0       0       0       0       0       0       0       0       0       0
       0       0       0       0       0       0       0       0       0       0
       0       0       0       0       0       0       0       0       0       0
       0       0       0       0       0       0       0       0       0       0
       0       0       0       0       0       0       0       0       0       0
       0       0       0       0       0       0       0       0       0       0
       0       0       0       0       0       0       0       0       0       0
       0       0       0       0       0       0       0       0       0       0
       0       0       0       0       0       0       0       0       0       0
       0       0       0       0       0       0       0       0       0       0
       0       0       0       0       0       0       0       0       0       0
       0       0       0       0       0       0       0       0       0       0
       0       0       0       0       0       0       0       0       0       0
       0       0       0       0       0       0       0       0       0       0
       0       0       0       0       0       0       0       0       0       0
       0       0       0       0       0       0       0       0       0       0
       0       0       0       0       0       0       0       0       0       0
       0       0       0       0       0       0       0       0       0       0
       0       0       0       0       0       0       0       0       0       0
       0       0       0       0       0       0       0       0       0       0
       0       0       0       0       0       0       0       0       0       0
       0       0       0       0       0       0       0       0       0       0
       0       0       0       0       0       0       0       0       0       0
       0       0       0       0       0       0       0       0       0       0
       0       0       0       0       0       0       0       0       0       0
       0       0       0       0       0       0       0       0       0       0
       0       0       0       0       0       0       0       0       0       0
       0       0       0       0       0       0       0       0       0       0
       0       0       0       0       0       0       0       0       0       0
       0       0       0       0       0       0       0       0       0       0
       0       0       0       0       0       0       0       0       0       0
       0       0       0       0       0       0       0       0       0       0
       0       0       0       0       0       0       0       0       0       0
       0       0       0       0       0       0       0       0       0       0
       0       0       0       0       0       0       0       0       0       0
       0       0       0       0       0       0       0       0       0       0
       0       0       0       0       0       0       0       0       0       0
       0       0       0       0       0       0       0       0       0       0
       0       0       0       0       0       0       0       0       0       0
       0       0       0       0       0       0       0       0       0       0
       0       0       0       0       0       0       0       0       0       0
       0       0       0       0       0       0       0       0       0       0
       0       0       0       0       0       0       0       0       0       0
       0       0       0       0       0       0       0       0       0       0
       0       0       0       0       0       0       0       0       0       0
       0       0       0       0       0       0       0       0       0       0
       0       0       0       0       0       0       0       0       0       0
       0       0       0       0       0       0       0       0       0       0
       0       0       0       0       0       0       0       0       0       0
       0       0       0       0       0       0       0       0       0       0
       0       0       0       0       0       0       0       0       0       0
       0       0       0       0       0       0       0       0       0       0
       0       0       0       0       0       0       0       0       0       0
       0       0       0       0       0       0       0       0       0       0
       0       0       0       0       0       0       0       0       0       0
       0       0       0       0       0       0       0       0       0       0
       0       0       0       0       0       0       0       0       0       0
       0       0       0       0       0       0       0       0       0       0
       0       0       0       0       0       0       0       0       0       0
       0       0       0       0       0       0       0       0       0       0
       0       0       0       0       0       0       0       0       0       0
       0       0       0       0       0       0       0       0       0       0
       0       0       0       0       0       0       0       0       0       0
       0       0       0       0       0       0       0       0       0       0
       0       0       0       0       0       0       0       0       0       0
       0       0       0       0       0       0       0       0       0       0
       0       0       0       0       0       0       0       0       0       0
       0       0       0       0       0       0       0       0       0       0
       0       0       0       0       0       0       0       0       0       0
       0       0       0       0       0       0       0       0       0       0
       0       0       0       0       0       0       0       0       0       0
       0       0       0       0       0       0       0       0       0       0
       0       0       0       0       0       0       0       0       0       0
       0       0       0       0       0       0       0       0       0       0
       0       0       0       0       0       0       0       0       0       0
       0       0       0       0       0       0       0       0       0       0
       0       0       0       0       0       0       0       0       0       0
       0       0       0       0       0       0       0       0       0       0
       0       0       0       0       0       0       0       0       0       0
       0       0       0       0       0       0       0       0       0       0
       0       0       0       0       0       0       0       0       0       0
       0       0       0       0       0       0       0       0       0       0
       0       0       0       0       0       0       0       0       0       0
       0       0       0       0       0       0       0       0       0       0
       0       0       0       0       0       0       0       0       0       0
       0       0       0       0       0       0       0       0       0       0
       0       0       0       0       0       0       0       0       0       0
       0       0       0       0       0       0       0       0       0       0
       0       0       0       0       0       0       0       0       0       0
       0       0       0       0       0       0       0       0       0       0
       0       0       0       0       0       0       0       0       0       0
       0       0       0       0       0       0       0       0       0       0
       0       0       0       0       0       0       0       0       0       0
       0       0       0       0       0       0       0       0       0       0
       0       0       0       0       0       0       0       0       0       0
       0       0       0       0       0       0       0       0       0       0
       0       0       0       0       0       0       0       0       0       0
       0       0       0       0       0       0       0       0       0       0
       0       0       0       0       0       0       0       0       0       0
       0       0       0       0       0       0       0       0       0       0
       0       0       0       0       0       0       0       0       0       0
       0       0       0       0       0       0       0       0       0       0
       0       0       0       0       0       0       0       0       0       0
       0       0       0       0       0       0       0       0       0       0
       0       0       0       0       0       0       0       0       0       0
       0       0       0       0       0       0       0       0       0       0
       0       0       0       0       0       0       0       0       0       0
       0       0       0       0       0       0       0       0       0       0
       0       0       0       0       0       0       0       0       0       0
       0       0       0       0       0       0       0       0       0       0
       0       0       0       0       0       0       0       0       0       0
       0       0       0       0       0       0       0       0       0       0
       0       0       0       0       0       0       0       0       0       0
       0       0       0       0       0       0       0       0       0       0
       0       0       0       0       0       0       0       0       0       0
       0       0       0       0       0       0       0       0       0       0
       0       0       0       0       0       0       0       0       0       0
       0       0       0       0       0       0       0       0       0       0
       0       0       0       0       0       0       0       0       0       0
       0       0       0       0       0       0       0       0       0       0
       0       0       0       0       0       0       0       0       0       0
       0       0       0       0       0       0       0       0       0       0
       0       0       0       0       0       0       0       0       0       0
       0       0       0       0       0       0       0       0       0       0
       0       0       0       0       0       0       0       0       0       0
       0       0       0       0       0       0       0       0       0       0
       0       0       0       0       0       0       0       0       0       0
       0       0       0       0       0       0       0       0       0       0
       0       0       0       0       0       0       0       0       0       0
       0       0       0       0       0       0       0       0       0       0
       0       0       0       0       0       0       0       0       0       0
       0       0       0       0       0       0       0       0       0       0
       0       0       0       0       0       0       0       0       0       0
       0       0       0       0       0       0       0       0       0       0
       0       0       0       0       0       0       0       0       0       0
       0       0       0       0       0       0       0       0       0       0
       0       0       0       0       0       0       0       0       0       0
       0       0       0       0       0       0       0       0       0       0
       0       0       0       0       0       0       0       0       0       0
       0       0       0       0       0       0       0       0       0       0
       0       0       0       0       0       0       0       0       0       0
       0       0       0       0       0       0       0       0       0       0
       0       0       0       0       0       0       0       0       0       0
       0       0       0       0       0       0       0       0       0       0
       0       0       0       0       0       0       0       0       0       0
       0       0       0       0       0       0       0       0       0       0
       0       0       0       0       0       0       0       0       0       0
       0       0       0       0       0       0       0       0       0       0
       0       0       0       0       0       0       0       0       0       0
       0       0       0       0       0       0       0       0       0       0
       0       0       0       0       0       0       0       0       0       0
       0       0       0       0       0       0       0       0       0       0
       0       0       0       0       0       0       0       0       0       0
       0       0       0       0       0       0       0       0       0       0
       0       0       0       0       0       0       0       0       0       0
       0       0       0       0       0       0       0       0       0       0
       0       0       0       0       0       0       0       0       0       0
       0       0       0       0       0       0       0       0       0       0
       0       0       0       0       0       0       0       0       0       0
       0       0       0       0       0       0       0       0       0       0
       0       0       0       0       0       0       0       0       0       0
       0       0       0       0       0       0       0       0       0       0
       0       0       0       0       0       0       0       0       0       0
       0       0       0       0       0       0       0       0       0       0
       0       0       0       0       0       0       0       0       0       0
       0       0       0       0       0       0       0       0       0       0
       0       0       0       0       0       0       0       0       0       0
       0       0       0       0       0       0       0       0       0       0
       0       0       0       0       0       0       0       0       0       0
       0       0       0       0       0       0       0       0       0       0
       0       0       0       0       0       0       0       0       0       0
       0       0       0       0       0       0       0       0       0       0
       0       0       0       0       0       0       0       0       0       0
       0       0       0       0       0       0       0       0       0       0
       0       0       0       0       0       0       0       0       0       0
       0       0       0       0       0       0       0       0       0       0
       0       0       0       0       0       0       0       0       0       0
       0       0       0       0       0       0       0       0       0       0
       0       0       0       0       0       0       0       0       0       0
       0       0       0       0       0       0       0       0       0       0
       0       0       0       0       0       0       0       0       0       0
       0       0       0       0       0       0       0       0       0       0
       0       0       0       0       0       0       0       0       0       0
       0       0       0       0       0       0       0       0       0       0
       0       0       0       0       0       0       0       0       0       0
       0       0       0       0       0       0       0       0       0       0
       0       0       0       0       0       0       0       0       0       0
       0       0       0       0       0       0       0       0       0       0
       0       0       0       0       0       0       0       0       0       0
       0       0       0       0       0       0       0       0       0       0
       0       0       0       0       0       0       0       0       0       0
       0       0       0       0       0       0       0       0       0       0
       0       0       0       0       0       0       0       0       0       0
       0       0       0       0       0       0       0       0       0       0
       0       0       0       0       0       0       0       0       0       0
       0       0       0       0       0       0       0       0       0       0
       0       0       0       0       0       0       0       0       0       0
       0       0       0       0       0       0       0       0       0       0
       0       0       0       0       0       0       0       0       0       0
       0       0       0       0       0       0       0       0       0       0
       0       0       0       0       0       0       0       0       0       0
       0       0       0       0       0       0       0       0       0       0
       0       0       0       0       0       0       0       0       0       0
       0       0       0       0       0       0       0       0       0       0
       0       0       0       0       0       0       0       0       0       0
       0       0       0       0       0       0       0       0       0       0
       0       0       0       0       0       0       0       0       0       0
       0       0       0       0       0       0       0       0       0       0
       0       0       0       0       0       0       0       0       0       0
       0       0       0       0       0       0       0       0       0       0
       0       0       0       0       0       0       0       0       0       0
       0       0       0       0       0       0       0       0       0       0
       0       0       0       0       0       0       0       0       0       0
       0       0       0       0       0       0       0       0       0       0
       0       0       0       0       0       0       0       0       0       0
       0       0       0       0       0       0       0       0       0       0
       0       0       0       0       0       0       0       0       0       0
       0       0       0       0       0       0       0       0       0       0
       0       0       0       0       0       0       0       0       0       0
       0       0       0       0       0       0       0       0       0       0
       0       0       0       0       0       0       0       0       0       0
       0       0       0       0       0       0       0       0       0       0
       0       0       0       0       0       0       0       0       0       0
       0       0       0       0       0       0       0       0       0       0
       0       0       0       0       0       0       0       0       0       0
       0       0       0       0       0       0       0       0       0       0
       0       0       0       0       0       0       0       0       0       0
       0       0       0       0       0       0       0       0       0       0
       0       0       0       0       0       0       0       0       0       0
       0       0       0       0       0       0       0       0       0       0
       0       0       0       0       0       0       0       0       0       0
       0       0       0       0       0       0       0       0       0       0
       0       0       0       0       0       0       0       0       0       0
       0       0       0       0       0       0       0       0       0       0
       0       0       0       0       0       0       0       0       0       0
       0       0       0       0       0       0       0       0       0       0
       0       0       0       0       0       0       0       0       0       0
       0       0       0       0       0       0       0       0       0       0
       0       0       0       0       0       0       0       0       0       0
       0       0       0       0       0       0       0       0       0       0
       0       0       0       0       0       0       0       0       0       0
       0       0       0       0       0       0       0       0       0       0
       0       0       0       0       0       0       0       0       0       0
       0       0       0       0       0       0       0       0       0       0
       0       0       0       0       0       0       0       0       0       0
       0       0       0       0       0       0       0       0       0       0
       0       0       0       0       0       0       0       0       0       0
       0       0       0       0       0       0       0       0       0       0
       0       0       0       0       0       0       0       0       0       0
       0       0       0       0       0       0       0       0       0       0
       0       0       0       0       0       0       0       0       0       0
       0       0       0       0       0       0       0       0       0       0
       0       0       0       0       0       0       0       0       0       0
       0       0       0       0       0       0       0       0       0       0
       0       0       0       0       0       0       0       0       0       0
       0       0       0       0       0       0       0       0       0       0
       0       0       0       0       0       0       0       0       0       0
       0       0       0       0       0       0       0       0       0       0
       0       0       0       0       0       0       0       0       0       0
       0       0       0       0       0       0       0       0       0       0
       0       0       0       0       0       0       0       0       0       0
       0       0       0       0       0       0       0       0       0       0
       0       0       0       0       0       0       0       0       0       0
       0       0       0       0       0       0       0       0       0       0
       0       0       0       0       0       0       0       0       0       0
       0       0       0       0       0       0       0       0       0       0
       0       0       0       0       0       0       0       0       0       0
       0       0       0       0       0       0       0       0       0       0
       0       0       0       0       0       0       0       0       0       0
       0       0       0       0       0       0       0       0       0       0
       0       0       0       0       0       0       0       0       0       0
       0       0       0       0       0       0       0       0       0       0
       0       0       0       0       0       0       0       0       0       0
       0       0       0       0       0       0       0       0       0       0
       0       0       0       0       0       0       0       0       0       0
       0       0       0       0       0       0       0       0       0       0
       0       0       0       0       0       0       0       0       0       0
       0       0       0       0       0       0       0       0       0       0
       0       0       0       0       0       0       0       0       0       0
       0       0       0       0       0       0       0       0       0       0
       0       0       0       0       0       0       0       0       0       0
       0       0       0       0       0       0       0       0       0       0
       0       0       0       0       0       0       0       0       0       0
       0       0       0       0       0       0       0       0       0       0
       0       0       0       0       0       0       0       0       0       0
       0       0       0       0       0       0       0       0       0       0
       0       0       0       0       0       0       0       0       0       0
       0       0       0       0       0       0       0       0       0       0
       0       0       0       0       0       0       0       0       0       0
       0       0       0       0       0       0       0       0       0       0
       0       0       0       0       0       0       0       0       0       0
       0       0       0       0       0       0       0       0       0       0
       0       0       0       0       0       0       0       0       0       0
       0       0       0       0       0       0       0       0       0       0
       0       0       0       0       0       0       0       0       0       0
       0       0       0       0       0       0       0       0       0       0
       0       0       0       0       0       0       0       0       0       0
       0       0       0       0       0       0       0       0       0       0
       0       0       0       0       0       0       0       0       0       0
       0       0       0       0       0       0       0       0       0       0
       0       0       0       0       0       0       0       0       0       0
       0       0       0       0       0       0       0       0       0       0
       0       0       0       0       0       0       0       0       0       0
       0       0       0       0       0       0       0       0       0       0
       0       0       0       0       0       0       0       0       0       0
       0       0       0       0       0       0       0       0       0       0
       0       0       0       0       0       0       0       0       0       0
       0       0       0       0       0       0       0       0       0       0
       0       0       0       0       0       0       0       0       0       0
       0       0       0       0       0       0       0       0       0       0
       0       0       0       0       0       0       0       0       0       0
       0       0       0       0       0       0       0       0       0       0
       0       0       0       0       0       0       0       0       0       0
       0       0       0       0       0       0       0       0       0       0
       0       0       0       0       0       0       0       0       0       0
       0       0       0       0       0       0       0       0       0       0
       0       0       0       0       0       0       0       0       0       0
       0       0       0       0       0       0       0       0       0       0
       0       0       0       0       0       0       0       0       0       0
       0       0       0       0       0       0       0       0       0       0
       0       0       0       0       0       0       0       0       0       0
       0       0       0       0       0       0       0       0       0       0
       0       0       0       0       0       0       0       0       0       0
       0       0       0       0       0       0       0       0       0       0
       0       0       0       0       0       0       0       0       0       0
       0       0       0       0       0       0       0       0       0       0
       0       0       0       0       0       0       0       0       0       0
       0       0       0       0       0       0       0       0       0       0
       0       0       0       0       0       0       0       0       0       0
       0       0       0       0       0       0       0       0       0       0
       0       0       0       0       0       0       0       0       0       0
       0       0       0       0       0       0       0       0       0       0
       0       0       0       0       0       0       0       0       0       0
       0       0       0       0       0       0       0       0       0       0
       0       0       0       0       0       0       0       0       0       0
       0       0       0       0       0       0       0       0       0       0
       0       0       0       0       0       0       0       0       0       0
       0       0       0       0       0       0       0       0       0       0
       0       0       0       0       0       0       0       0       0       0
       0       0       0       0       0       0       0       0       0       0
       0       0       0       0       0       0       0       0       0       0
       0       0       0       0       0       0       0       0       0       0
       0       0       0       0       0       0       0       0       0       0
       0       0       0       0       0       0       0       0       0       0
       0       0       0       0       0       0       0       0       0       0
       0       0       0       0       0       0       0       0       0       0
       0       0       0       0       0       0       0       0       0       0
       0       0       0       0       0       0       0       0       0       0
       0       0       0       0       0       0       0       0       0       0
       0       0       0       0       0       0       0       0       0       0
       0       0       0       0       0       0       0       0       0       0
       0       0       0       0       0       0       0       0       0       0
       0       0       0       0       0       0       0       0       0       0
       0       0       0       0       0       0       0       0       0       0
       0       0       0       0       0       0       0       0       0       0
       0       0       0       0       0       0       0       0       0       0
       0       0       0       0       0       0       0       0       0       0
       0       0       0       0       0       0       0       0       0       0
       0       0       0       0       0       0       0       0       0       0
       0       0       0       0       0       0       0       0       0       0
       0       0       0       0       0       0       0       0       0       0
       0       0       0       0       0       0       0       0       0       0
       0       0       0       0       0       0       0       0       0       0
       0       0       0       0       0       0       0       0       0       0
       0       0       0       0       0       0       0       0       0       0
       0       0       0       0       0       0       0       0       0       0
       0       0       0       0       0       0       0       0       0       0
       0       0       0       0       0       0       0       0       0       0
       0       0       0       0       0       0       0       0       0       0
       0       0       0       0       0       0       0       0       0       0
       0       0       0       0       0       0       0       0       0       0
       0       0       0       0       0       0       0       0       0       0
       0       0       0       0       0       0       0       0       0       0
       0       0       0       0       0       0       0       0       0       0
       0       0       0       0       0       0       0       0       0       0
       0       0       0       0       0       0       0       0       0       0
       0       0       0       0       0       0       0       0       0       0
       0       0       0       0       0       0       0       0       0       0
       0       0       0       0       0       0       0       0       0       0
       0       0       0       0       0       0       0       0       0       0
       0       0       0       0       0       0       0       0       0       0
       0       0       0       0       0       0       0       0       0       0
       0       0       0       0       0       0       0       0       0       0
       0       0       0       0       0       0       0       0       0       0
       0       0       0       0       0       0       0       0       0       0
       0       0       0       0       0       0       0       0       0       0
       0       0       0       0       0       0       0       0       0       0
       0       0       0       0       0       0       0       0       0       0
       0       0       0       0       0       0       0       0       0       0
       0       0       0       0       0       0       0       0       0       0
       0       0       0       0       0       0       0       0       0       0
       0       0       0       0       0       0       0       0       0       0
       0       0       0       0       0       0       0       0       0       0
       0       0       0       0       0       0       0       0       0       0
       0       0       0       0       0       0       0       0       0       0
       0       0       0       0       0       0       0       0       0       0
       0       0       0       0       0       0       0       0       0       0
       0       0       0       0       0       0       0       0       0       0
       0       0       0       0       0       0       0       0       0       0
       0       0       0       0       0       0       0       0       0       0
       0       0       0       0       0       0       0       0       0       0
       0       0       0       0       0       0       0       0       0       0
       0       0       0       0       0       0       0       0       0       0
       0       0       0       0       0       0       0       0       0       0
       0       0       0       0       0       0       0       0       0       0
       0       0       0       0       0       0       0       0       0       0
       0       0       0       0       0       0       0       0       0       0
       0       0       0       0       0       0       0       0       0       0
       0       0       0       0       0       0       0       0       0       0
       0       0       0       0       0       0       0       0       0       0
       0       0       0       0       0       0       0       0       0       0
       0       0       0       0       0       0       0       0       0       0
       0       0       0       0       0       0       0       0       0       0
       0       0       0       0       0       0       0       0       0       0
       0       0       0       0       0       0       0       0       0       0
       0       0       0       0       0       0       0       0       0       0
       0       0       0       0       0       0       0       0       0       0
       0       0       0       0       0       0       0       0       0       0
       0       0       0       0       0       0       0       0       0       0
       0       0       0       0       0       0       0       0       0       0
       0       0       0       0       0       0       0       0       0       0
       0       0       0       0       0       0       0       0       0       0
       0       0       0       0       0       0       0       0       0       0
       0       0       0       0       0       0       0       0       0       0
       0       0       0       0       0       0       0       0       0       0
       0       0       0       0       0       0       0       0       0       0
       0       0       0       0       0       0       0       0       0       0
       0       0       0       0       0       0       0       0       0       0
       0       0       0       0       0       0       0       0       0       0
       0       0       0       0       0       0       0       0       0       0
       0       0       0       0       0       0       0       0       0       0
       0       0       0       0       0       0       0       0       0       0
       0       0       0       0       0       0       0       0       0       0
       0       0       0       0       0       0       0       0       0       0
       0       0       0       0       0       0       0       0       0       0
       0       0       0       0       0       0       0       0       0       0
       0       0       0       0       0       0       0       0       0       0
       0       0       0       0       0       0       0       0       0       0
       0       0       0       0       0       0       0       0       0       0
       0       0       0       0       0       0       0       0       0       0
       0       0       0       0       0       0       0       0       0       0
       0       0       0       0       0       0       0       0       0       0
       0       0       0       0       0       0       0       0       0       0
       0       0       0       0       0       0       0       0       0       0
       0       0       0       0       0       0       0       0       0       0
       0       0       0       0       0       0       0       0       0       0
       0       0       0       0       0       0       0       0       0       0
       0       0       0       0       0       0       0       0       0       0
       0       0       0       0       0       0       0       0       0       0
       0       0       0       0       0       0       0       0       0       0
       0       0       0       0       0       0       0       0       0       0
       0       0       0       0       0       0       0       0       0       0
       0       0       0       0       0       0       0       0       0       0
       0       0       0       0       0       0       0       0       0       0
       0       0       0       0       0       0       0       0       0       0
       0       0       0       0       0       0       0       0       0       0
       0       0       0       0       0       0       0       0       0       0
       0       0       0       0       0       0       0       0       0       0
       0       0       0       0       0       0       0       0       0       0
       0       0       0       0       0       0       0       0       0       0
       0       0       0       0       0       0       0       0       0       0
       0       0       0       0       0       0       0       0       0       0
       0       0       0       0       0       0       0       0       0       0
       0       0       0       0       0       0       0       0       0       0
       0       0       0       0       0       0       0       0       0       0
       0       0       0       0       0       0       0       0       0       0
       0       0       0       0       0       0       0       0       0       0
       0       0       0       0       0       0       0       0       0       0
       0       0       0       0       0       0       0       0       0       0
       0       0       0       0       0       0       0       0       0       0
       0       0       0       0       0       0       0       0       0       0
       0       0       0       0       0       0       0       0       0       0
       0       0       0       0       0       0       0       0       0       0
       0       0       0       0       0       0       0       0       0       0
       0       0       0       0       0       0       0       0       0       0
       0       0       0       0       0       0       0       0       0       0
       0       0       0       0       0       0       0       0       0       0
       0       0       0       0       0       0       0       0       0       0
       0       0       0       0       0       0       0       0       0       0
       0       0       0       0       0       0       0       0       0       0
       0       0       0       0       0       0       0       0       0       0
       0       0       0       0       0       0       0       0       0       0
       0       0       0       0       0       0       0       0       0       0
       0       0       0       0       0       0       0       0       0       0
       0       0       0       0       0       0       0       0       0       0
       0       0       0       0       0       0       0       0       0       0
       0       0       0       0       0       0       0       0       0       0
       0       0       0       0       0       0       0       0       0       0
       0       0       0       0       0       0       0       0       0       0
       0       0       0       0       0       0       0       0       0       0
       0       0       0       0       0       0       0       0       0       0
       0       0       0       0       0       0       0       0       0       0
       0       0       0       0       0       0       0       0       0       0
       0       0       0       0       0       0       0       0       0       0
       0       0       0       0       0       0       0       0       0       0
       0       0       0       0       0       0       0       0       0       0
       0       0       0       0       0       0       0       0       0       0
       0       0       0       0       0       0       0       0       0       0
       0       0       0       0       0       0       0       0       0       0
       0       0       0       0       0       0       0       0       0       0
       0       0       0       0       0       0       0       0       0       0
       0       0       0       0       0       0       0       0       0       0
       0       0       0       0       0       0       0       0       0       0
       0       0       0       0       0       0       0       0       0       0
       0       0       0       0       0       0       0       0       0       0
       0       0       0       0       0       0       0       0       0       0
       0       0       0       0       0       0       0       0       0       0
       0       0       0       0       0       0       0       0       0       0
       0       0       0       0       0       0       0       0       0       0
       0       0       0       0       0       0       0       0       0       0
       0       0       0       0       0       0       0       0       0       0
       0       0       0       0       0       0       0       0       0       0
       0       0       0       0       0       0       0       0       0       0
       0       0       0       0       0       0       0       0       0       0
       0       0       0       0       0       0       0       0       0       0
       0       0       0       0       0       0       0       0       0       0
       0       0       0       0       0       0       0       0       0       0
       0       0       0       0       0       0       0       0       0       0
       0       0       0       0       0       0       0       0       0       0
       0       0       0       0       0       0       0       0       0       0
       0       0       0       0       0       0       0       0       0       0
       0       0       0       0       0       0       0       0       0       0
       0       0       0       0       0       0       0       0       0       0
       0       0       0       0       0       0       0       0       0       0
       0       0       0       0       0       0       0       0       0       0
       0       0       0       0       0       0       0       0       0       0
       0       0       0       0       0       0       0       0       0       0
       0       0       0       0       0       0       0       0       0       0
       0       0       0       0       0       0       0       0       0       0
       0       0       0       0       0       0       0       0       0       0
       0       0       0       0       0       0       0       0       0       0
       0       0       0       0       0       0       0       0       0       0
       0       0       0       0       0       0       0       0       0       0
       0       0       0       0       0       0       0       0       0       0
       0       0       0       0       0       0       0       0       0       0
       0       0       0       0       0       0       0       0       0       0
       0       0       0       0       0       0       0       0       0       0
       0       0       0       0       0       0       0       0       0       0
       0       0       0       0       0       0       0       0       0       0
       0       0       0       0       0       0       0       0       0       0
       0       0       0       0       0       0       0       0       0       0
       0       0       0       0       0       0       0       0       0       0
       0       0       0       0       0       0       0       0       0       0
       0       0       0       0       0       0       0       0       0       0
       0       0       0       0       0       0       0       0       0       0
       0       0       0       0       0       0       0       0       0       0
       0       0       0       0       0       0       0       0       0       0
       0       0       0       0       0       0       0       0       0       0
       0       0       0       0       0       0       0       0       0       0
       0       0       0       0       0       0       0       0       0       0
       0       0       0       0       0       0       0       0       0       0
       0       0       0       0       0       0       0       0       0       0
       0       0       0       0       0       0       0       0       0       0
       0       0       0       0       0       0       0       0       0       0
       0       0       0       0       0       0       0       0       0       0
       0       0       0       0       0       0       0       0       0       0
       0       0       0       0       0       0       0       0       0       0
       0       0       0       0       0       0       0       0       0       0
       0       0       0       0       0       0       0       0       0       0
       0       0       0       0       0       0       0       0       0       0
       0       0       0       0       0       0       0       0       0       0
       0       0       0       0       0       0       0       0       0       0
       0       0       0       0       0       0       0       0       0       0
       0       0       0       0       0       0       0       0       0       0
       0       0       0       0       0       0       0       0       0       0
       0       0       0       0       0       0       0       0       0       0
       0       0       0       0       0       0       0       0       0       0
       0       0       0       0       0       0       0       0       0       0
       0       0       0       0       0       0       0       0       0       0
       0       0       0       0       0       0       0       0       0       0
       0       0       0       0       0       0       0       0       0       0
       0       0       0       0       0       0       0       0       0       0
       0       0       0       0       0       0       0       0       0       0
       0       0       0       0       0       0       0       0       0       0
       0       0       0       0       0       0       0       0       0       0
       0       0       0       0       0       0       0       0       0       0
       0       0       0       0       0       0       0       0       0       0
       0       0       0       0       0       0       0       0       0       0
       0       0       0       0       0       0       0       0       0       0
       0       0       0       0       0       0       0       0       0       0
       0       0       0       0       0       0       0       0       0       0
       0       0       0       0       0       0       0       0       0       0
       0       0       0       0       0       0       0       0       0       0
       0       0       0       0       0       0       0       0       0       0
       0       0       0       0       0       0       0       0       0       0
       0       0       0       0       0       0       0       0       0       0
       0       0       0       0       0       0       0       0       0       0
       0       0       0       0       0       0       0       0       0       0
       0       0       0       0       0       0       0       0       0       0
       0       0       0       0       0       0       0       0       0       0
       0       0       0       0       0       0       0       0       0       0
       0       0       0       0       0       0       0       0       0       0
       0       0       0       0       0       0       0       0       0       0
       0       0       0       0       0       0       0       0       0       0
       0       0       0       0       0       0       0       0       0       0
       0       0       0       0       0       0       0       0       0       0
       0       0       0       0       0       0       0       0       0       0
       0       0       0       0       0       0       0       0       0       0
       0       0       0       0       0       0       0       0       0       0
       0       0       0       0       0       0       0       0       0       0
       0       0       0       0       0       0       0       0       0       0
       0       0       0       0       0       0       0       0       0       0
       0       0       0       0       0       0       0       0       0       0
       0       0       0       0       0       0       0       0       0       0
       0       0       0       0       0       0       0       0       0       0
       0       0       0       0       0       0       0       0       0       0
       0       0       0       0       0       0       0       0       0       0
       0       0       0       0       0       0       0       0       0       0
       0       0       0       0       0       0       0       0       0       0
       0       0       0       0       0       0       0       0       0       0
       0       0       0       0       0       0       0       0       0       0
       0       0       0       0       0       0       0       0       0       0
       0       0       0       0       0       0       0       0       0       0
       0       0       0       0       0       0       0       0       0       0
       0       0       0       0       0       0       0       0       0       0
       0       0       0       0       0       0       0       0       0       0
       0       0       0       0       0       0       0       0       0       0
       0       0       0       0       0       0       0       0       0       0
       0       0       0       0       0       0       0       0       0       0
       0       0       0       0       0       0       0       0       0       0
       0       0       0       0       0       0       0       0       0       0
       0       0       0       0       0       0       0       0       0       0
       0       0       0       0       0       0       0       0       0       0
       0       0       0       0       0       0       0       0       0       0
       0       0       0       0       0       0       0       0       0       0
       0       0       0       0       0       0       0       0       0       0
       0       0       0       0       0       0       0       0       0       0
       0       0       0       0       0       0       0       0       0       0
       0       0       0       0       0       0       0       0       0       0
       0       0       0       0       0       0       0       0       0       0
       0       0       0       0       0       0       0       0       0       0
       0       0       0       0       0       0       0       0       0       0
       0       0       0       0       0       0       0       0       0       0
       0       0       0       0       0       0       0       0       0       0
       0       0       0       0       0       0       0       0       0       0
       0       0       0       0       0       0       0       0       0       0
       0       0       0       0       0       0       0       0       0       0
       0       0       0       0       0       0       0       0       0       0
       0       0       0       0       0       0       0       0       0       0
       0       0       0       0       0       0       0       0       0       0
       0       0       0       0       0       0       0       0       0       0
       0       0       0       0       0       0       0       0       0       0
       0       0       0       0       0       0       0       0       0       0
       0       0       0       0       0       0       0       0       0       0
       0       0       0       0       0       0       0       0       0       0
       0       0       0       0       0       0       0       0       0       0
       0       0       0       0       0       0       0       0       0       0
       0       0       0       0       0       0       0       0       0       0
       0       0       0       0       0       0       0       0       0       0
       0       0       0       0       0       0       0       0       0       0
       0       0       0       0       0       0       0       0       0       0
       0       0       0       0       0       0       0       0       0       0
       0       0       0       0       0       0       0       0       0       0
       0       0       0       0       0       0       0       0       0       0
       0       0       0       0       0       0       0       0       0       0
       0       0       0       0       0       0       0       0       0       0
       0       0       0       0       0       0       0       0       0       0
       0       0       0       0       0       0       0       0       0       0
       0       0       0       0       0       0       0       0       0       0
       0       0       0       0       0       0       0       0       0       0
       0       0       0       0       0       0       0       0       0       0
       0       0       0       0       0       0       0       0       0       0
       0       0       0       0       0       0       0       0       0       0
       0       0       0       0       0       0       0       0       0       0
       0       0       0       0       0       0       0       0       0       0
       0       0       0       0       0       0       0       0       0       0
       0       0       0       0       0       0       0       0       0       0
       0       0       0       0       0       0       0       0       0       0
       0       0       0       0       0       0       0       0       0       0
       0       0       0       0       0       0       0       0       0       0
       0       0       0       0       0       0       0       0       0       0
       0       0       0       0       0       0       0       0       0       0
       0       0       0       0       0       0       0       0       0       0
       0       0       0       0       0       0       0       0       0       0
       0       0       0       0       0       0       0       0       0       0
       0       0       0       0       0       0       0       0       0       0
       0       0       0       0       0       0       0       0       0       0
       0       0       0       0       0       0       0       0       0       0
       0       0       0       0       0       0       0       0       0       0
       0       0       0       0       0       0       0       0       0       0
       0       0       0       0       0       0       0       0       0       0
       0       0       0       0       0       0       0       0       0       0
       0       0       0       0       0       0       0       0       0       0
       0       0       0       0       0       0       0       0       0       0
       0       0       0       0       0       0       0       0       0       0
       0       0       0       0       0       0       0       0       0       0
       0       0       0       0       0       0       0       0       0       0
       0       0       0       0       0       0       0       0       0       0
       0       0       0       0       0       0       0       0       0       0
       0       0       0       0       0       0       0       0       0       0
       0       0       0       0       0       0       0       0       0       0
       0       0       0       0       0       0       0       0       0       0
       0       0       0       0       0       0       0       0       0       0
       0       0       0       0       0       0       0       0       0       0
       0       0       0       0       0       0       0       0       0       0
       0       0       0       0       0       0       0       0       0       0
       0       0       0       0       0       0       0       0       0       0
       0       0       0       0       0       0       0       0       0       0
       0       0       0       0       0       0       0       0       0       0
       0       0       0       0       0       0       0       0       0       0
       0       0       0       0       0       0       0       0       0       0
       0       0       0       0       0       0       0       0       0       0
       0       0       0       0       0       0       0       0       0       0
       0       0       0       0       0       0       0       0       0       0
       0       0       0       0       0       0       0       0       0       0
       0       0       0       0       0       0       0       0       0       0
       0       0       0       0       0       0       0       0       0       0
       0       0       0       0       0       0       0       0       0       0
       0       0       0       0       0       0       0       0       0       0
       0       0       0       0       0       0       0       0       0       0
       0       0       0       0       0       0       0       0       0       0
       0       0       0       0       0       0       0       0       0       0
       0       0       0       0       0       0       0       0       0       0
       0       0       0       0       0       0       0       0       0       0
       0       0       0       0       0       0       0       0       0       0
       0       0       0       0       0       0       0       0       0       0
       0       0       0       0       0       0       0       0       0       0
       0       0       0       0       0       0       0       0       0       0
       0       0       0       0       0       0       0       0       0       0
       0       0       0       0       0       0       0       0       0       0
       0       0       0       0       0       0       0       0       0       0
       0       0       0       0       0       0       0       0       0       0
       0       0       0       0       0       0       0       0       0       0
       0       0       0       0       0       0       0       0       0       0
       0       0       0       0       0       0       0       0       0       0
       0       0       0       0       0       0       0       0       0       0
       0       0       0       0       0       0       0       0       0       0
       0       0       0       0       0       0       0       0       0       0
       0       0       0       0       0       0       0       0       0       0
       0       0       0       0       0       0       0       0       0       0
       0       0       0       0       0       0       0       0       0       0
       0       0       0       0       0       0       0       0       0       0
       0       0       0       0       0       0       0       0       0       0
       0       0       0       0       0       0       0       0       0       0
       0       0       0       0       0       0       0       0       0       0
       0       0       0       0       0       0       0       0       0       0
       0       0       0       0       0       0       0       0       0       0
       0       0       0       0       0       0       0       0       0       0
       0       0       0       0       0       0       0       0       0       0
       0       0       0       0       0       0       0       0       0       0
       0       0       0       0       0       0       0       0       0       0
       0       0       0       0       0       0       0       0       0       0
       0       0       0       0       0       0       0       0       0       0
       0       0       0       0       0       0       0       0       0       0
       0       0       0       0       0       0       0       0       0       0
       0       0       0       0       0       0       0       0       0       0
       0       0       0       0       0       0       0       0       0       0
       0       0       0       0       0       0       0       0       0       0
       0       0       0       0       0       0       0       0       0       0
       0       0       0       0       0       0       0       0       0       0
       0       0       0       0       0       0       0       0       0       0
       0       0       0       0       0       0       0       0       0       0
       0       0       0       0       0       0       0       0       0       0
       0       0       0       0       0       0       0       0       0       0
       0       0       0       0       0       0       0       0       0       0
       0       0       0       0       0       0       0       0       0       0
       0       0       0       0       0       0       0       0       0       0
       0       0       0       0       0       0       0       0       0       0
       0       0       0       0       0       0       0       0       0       0
       0       0       0       0       0       0       0       0       0       0
       0       0       0       0       0       0       0       0       0       0
       0       0       0       0       0       0       0       0       0       0
       0       0       0       0       0       0       0       0       0       0
       0       0       0       0       0       0       0       0       0       0
       0       0       0       0       0       0       0       0       0       0
       0       0       0       0       0       0       0       0       0       0
       0       0       0       0       0       0       0       0       0       0
       0       0       0       0       0       0       0       0       0       0
       0       0       0       0       0       0       0       0       0       0
       0       0       0       0       0       0       0       0       0       0
       0       0       0       0       0       0       0       0       0       0
       0       0       0       0       0       0       0       0       0       0
       0       0       0       0       0       0       0       0       0       0
       0       0       0       0       0       0       0       0       0       0
       0       0       0       0       0       0       0       0       0       0
       0       0       0       0       0       0       0       0       0       0
       0       0       0       0       0       0       0       0       0       0
       0       0       0       0       0       0       0       0       0       0
       0       0       0       0       0       0       0       0       0       0
       0       0       0       0       0       0       0       0       0       0
       0       0       0       0       0       0       0       0       0       0
       0       0       0       0       0       0       0       0       0       0
       0       0       0       0       0       0       0       0       0       0
       0       0       0       0       0       0       0       0       0       0
       0       0       0       0       0       0       0       0       0       0
       0       0       0       0       0       0       0       0       0       0
       0       0       0       0       0       0       0       0       0       0
       0       0       0       0       0       0       0       0       0       0
       0       0       0       0       0       0       0       0       0       0
       0       0       0       0       0       0       0       0       0       0
       0       0       0       0       0       0       0       0       0       0
       0       0       0       0       0       0       0       0       0       0
       0       0       0       0       0       0       0       0       0       0
       0       0       0       0       0       0       0       0       0       0
       0       0       0       0       0       0       0       0       0       0
       0       0       0       0       0       0       0       0       0       0
       0       0       0       0       0       0       0       0       0       0
       0       0       0       0       0       0       0       0       0       0
       0       0       0       0       0       0       0       0       0       0
       0       0       0       0       0       0       0       0       0       0
       0       0       0       0       0       0       0       0       0       0
       0       0       0       0       0       0       0       0       0       0
       0       0       0       0       0       0       0       0       0       0
       0       0       0       0       0       0       0       0       0       0
       0       0       0       0       0       0       0       0       0       0
       0       0       0       0       0       0       0       0       0       0
       0       0       0       0       0       0       0       0       0       0
       0       0       0       0       0       0       0       0       0       0
       0       0       0       0       0       0       0       0       0       0
       0       0       0       0       0       0       0       0       0       0
       0       0       0       0       0       0       0       0       0       0
       0       0       0       0       0       0       0       0       0       0
       0       0       0       0       0       0       0       0       0       0
       0       0       0       0       0       0       0       0       0       0
       0       0       0       0       0       0       0       0       0       0
       0       0       0       0       0       0       0       0       0       0
       0       0       0       0       0       0       0       0       0       0
       0       0       0       0       0       0       0       0       0       0
       0       0       0       0       0       0       0       0       0       0
       0       0       0       0       0       0       0       0       0       0
       0       0       0       0       0       0       0       0       0       0
       0       0       0       0       0       0       0       0       0       0
       0       0       0       0       0       0       0       0       0       0
       0       0       0       0       0       0       0       0       0       0
       0       0       0       0       0       0       0       0       0       0
       0       0       0       0       0       0       0       0       0       0
       0       0       0       0       0       0       0       0       0       0
       0       0       0       0       0       0       0       0       0       0
       0       0       0       0       0       0       0       0       0       0
       0       0       0       0       0       0       0       0       0       0
       0       0       0       0       0       0       0       0       0       0
       0       0       0       0       0       0       0       0       0       0
       0       0       0       0       0       0       0       0       0       0
       0       0       0       0       0       0       0       0       0       0
       0       0       0       0       0       0       0       0       0       0
       0       0       0       0       0       0       0       0       0       0
       0       0       0       0       0       0       0       0       0       0
       0       0       0       0       0       0       0       0       0       0
       0       0       0       0       0       0       0       0       0       0
       0       0       0       0       0       0       0       0       0       0
       0       0       0       0       0       0       0       0       0       0
       0       0       0       0       0       0       0       0       0       0
       0       0       0       0       0       0       0       0       0       0
       0       0       0       0       0       0       0       0       0       0
       0       0       0       0       0       0       0       0       0       0
       0       0       0       0       0       0       0       0       0       0
       0       0       0       0       0       0       0       0       0       0
       0       0       0       0       0       0       0       0       0       0
       0       0       0       0       0       0       0       0       0       0
       0       0       0       0       0       0       0       0       0       0
       0       0       0       0       0       0       0       0       0       0
       0       0       0       0       0       0       0       0       0       0
       0       0       0       0       0       0       0       0       0       0
       0       0       0       0       0       0       0       0       0       0
       0       0       0       0       0       0       0       0       0       0
       0       0       0       0       0       0       0       0       0       0
       0       0       0       0       0       0       0       0       0       0
       0       0       0       0       0       0       0       0       0       0
       0       0       0       0       0       0       0       0       0       0
       0       0       0       0       0       0       0       0       0       0
       0       0       0       0       0       0       0       0       0       0
       0       0       0       0       0       0       0       0       0       0
       0       0       0       0       0       0       0       0       0       0
       0       0       0       0       0       0       0       0       0       0
       0       0       0       0       0       0       0       0       0       0
       0       0       0       0       0       0       0       0       0       0
       0       0       0       0       0       0       0       0       0       0
       0       0       0       0       0       0       0       0       0       0
       0       0       0       0       0       0       0       0       0       0
       0       0       0       0       0       0       0       0       0       0
       0       0       0       0       0       0       0       0       0       0
       0       0       0       0       0       0       0       0       0       0
       0       0       0       0       0       0       0       0       0       0
       0       0       0       0       0       0       0       0       0       0
       0       0       0       0       0       0       0       0       0       0
       0       0       0       0       0       0       0       0       0       0
       0       0       0       0       0       0       0       0       0       0
       0       0       0       0       0       0       0       0       0       0
       0       0       0       0       0       0       0       0       0       0
       0       0       0       0       0       0       0       0       0       0
       0       0       0       0       0       0       0       0       0       0
       0       0       0       0       0       0       0       0       0       0
       0       0       0       0       0       0       0       0       0       0
       0       0       0       0       0       0       0       0       0       0
       0       0       0       0       0       0       0       0       0       0
       0       0       0       0       0       0       0       0       0       0
       0       0       0       0       0       0       0       0       0       0
       0       0       0       0       0       0       0       0       0       0
       0       0       0       0       0       0       0       0       0       0
       0       0       0       0       0       0       0       0       0       0
       0       0       0       0       0       0       0       0       0       0
       0       0       0       0       0       0       0       0       0       0
       0       0       0       0       0       0       0       0       0       0
       0       0       0       0       0       0       0       0       0       0
       0       0       0       0       0       0       0       0       0       0
       0       0       0       0       0       0       0       0       0       0
       0       0       0       0       0       0       0       0       0       0
       0       0       0       0       0       0       0       0       0       0
       0       0       0       0       0       0       0       0       0       0
       0       0       0       0       0       0       0       0       0       0
       0       0       0       0       0       0       0       0       0       0
       0       0       0       0       0       0       0       0       0       0
       0       0       0       0       0       0       0       0       0       0
       0       0       0       0       0       0       0       0       0       0
       0       0       0       0       0       0       0       0       0       0
       0       0       0       0       0       0       0       0       0       0
       0       0       0       0       0       0       0       0       0       0
       0       0       0       0       0       0       0       0       0       0
       0       0       0       0       0       0       0       0       0       0
       0       0       0       0       0       0       0       0       0       0
       0       0       0       0       0       0       0       0       0       0
       0       0       0       0       0       0       0       0       0       0
       0       0       0       0       0       0       0       0       0       0
       0       0       0       0       0       0       0       0       0       0
       0       0       0       0       0       0       0       0       0       0
       0       0       0       0       0       0       0       0       0       0
       0       0       0       0       0       0       0       0       0       0
       0       0       0       0       0       0       0       0       0       0
       0       0       0       0       0       0       0       0       0       0
       0       0       0       0       0       0       0       0       0       0
       0       0       0       0       0       0       0       0       0       0
       0       0       0       0       0       0       0       0       0       0
       0       0       0       0       0       0       0       0       0       0
       0       0       0       0       0       0       0       0       0       0
       0       0       0       0       0       0       0       0       0       0
       0       0       0       0       0       0       0       0       0       0
       0       0       0       0       0       0       0       0       0       0
       0       0       0       0       0       0       0       0       0       0
       0       0       0       0       0       0       0       0       0       0
       0       0       0       0       0       0       0       0       0       0
       0       0       0       0       0       0       0       0       0       0
       0       0       0       0       0       0       0       0       0       0
       0       0       0       0       0       0       0       0       0       0
       0       0       0       0       0       0       0       0       0       0
       0       0       0       0       0       0       0       0       0       0
       0       0       0       0       0       0       0       0       0       0
       0       0       0       0       0       0       0       0       0       0
       0       0       0       0       0       0       0       0       0       0
       0       0       0       0       0       0       0       0       0       0
       0       0       0       0       0       0       0       0       0       0
       0       0       0       0       0       0       0       0       0       0
       0       0       0       0       0       0       0       0       0       0
       0       0       0       0       0       0       0       0       0       0
       0       0       0       0       0       0       0       0       0       0
       0       0       0       0       0       0       0       0       0       0
       0       0       0       0       0       0       0       0       0       0
       0       0       0       0       0       0       0       0       0       0
       0       0       0       0       0       0       0       0       0       0
       0       0       0       0       0       0       0       0       0       0
       0       0       0       0       0       0       0       0       0       0
       0       0       0       0       0       0       0       0       0       0
       0       0       0       0       0       0       0       0       0       0
       0       0       0       0       0       0       0       0       0       0
       0       0       0       0       0       0       0       0       0       0
       0       0       0       0       0       0       0       0       0       0
       0       0       0       0       0       0       0       0       0       0
       0       0       0       0       0       0       0       0       0       0
       0       0       0       0       0       0       0       0       0       0
       0       0       0       0       0       0       0       0       0       0
       0       0       0       0       0       0       0       0       0       0
       0       0       0       0       0       0       0       0       0       0
       0       0       0       0       0       0       0       0       0       0
       0       0       0       0       0       0       0       0       0       0
       0       0       0       0       0       0       0       0       0       0
       0       0       0       0       0       0       0       0       0       0
       0       0       0       0       0       0       0       0       0       0
       0       0       0       0       0       0       0       0       0       0
       0       0       0       0       0       0       0       0       0       0
       0       0       0       0       0       0       0       0       0       0
       0       0       0       0       0       0       0       0       0       0
       0       0       0       0       0       0       0       0       0       0
       0       0       0       0       0       0       0       0       0       0
       0       0       0       0       0       0       0       0       0       0
       0       0       0       0       0       0       0       0       0       0
       0       0       0       0       0       0       0       0       0       0
       0       0       0       0       0       0       0       0       0       0
       0       0       0       0       0       0       0       0       0       0
       0       0       0       0       0       0       0       0       0       0
       0       0       0       0       0       0       0       0       0       0
       0       0       0       0       0       0       0       0       0       0
       0       0       0       0       0       0       0       0       0       0
       0       0       0       0       0       0       0       0       0       0
       0       0       0       0       0       0       0       0       0       0
       0       0       0       0       0       0       0       0       0       0
       0       0       0       0       0       0       0       0       0       0
       0       0       0       0       0       0       0       0       0       0
       0       0       0       0       0       0       0       0       0       0
       0       0       0       0       0       0       0       0       0       0
       0       0       0       0       0       0       0       0       0       0
       0       0       0       0       0       0       0       0       0       0
       0       0       0       0       0       0       0       0       0       0
       0       0       0       0       0       0       0       0       0       0
       0       0       0       0       0       0       0       0       0       0
       0       0       0       0       0       0       0       0       0       0
       0       0       0       0       0       0       0       0       0       0
       0       0       0       0       0       0       0       0       0       0
       0       0       0       0       0       0       0       0       0       0
       0       0       0       0       0       0       0       0       0       0
       0       0       0       0       0       0       0       0       0       0
       0       0       0       0       0       0       0       0       0       0
       0       0       0       0       0       0       0       0       0       0
       0       0       0       0       0       0       0       0       0       0
       0       0       0       0       0       0       0       0       0       0
       0       0       0       0       0       0       0       0       0       0
       0       0       0       0       0       0       0       0       0       0
       0       0       0       0       0       0       0       0       0       0
       0       0       0       0       0       0       0       0       0       0
       0       0       0       0       0       0       0       0       0       0
       0       0       0       0       0       0       0       0       0       0
       0       0       0       0       0       0       0       0       0       0
       0       0       0       0       0       0       0       0       0       0
       0       0       0       0       0       0       0       0       0       0
       0       0       0       0       0       0       0       0       0       0
       0       0       0       0       0       0       0       0       0       0
       0       0       0       0       0       0       0       0       0       0
       0       0       0       0       0       0       0       0       0       0
       0       0       0       0       0       0       0       0       0       0
       0       0       0       0       0       0       0       0       0       0
       0       0       0       0       0       0       0       0       0       0
       0       0       0       0       0       0       0       0       0       0
       0       0       0       0       0       0       0       0       0       0
       0       0       0       0       0       0       0       0       0       0
       0       0       0       0       0       0       0       0       0       0
       0       0       0       0       0       0       0       0       0       0
       0       0       0       0       0       0       0       0       0       0
       0       0       0       0       0       0       0       0       0       0
       0       0       0       0       0       0       0       0       0       0
       0       0       0       0       0       0       0       0       0       0
       0       0       0       0       0       0       0       0       0       0
       0       0       0       0       0       0       0       0       0       0
       0       0       0       0       0       0       0       0       0       0
       0       0       0       0       0       0       0       0       0       0
       0       0       0       0       0       0       0       0       0       0
       0       0       0       0       0       0       0       0       0       0
       0       0       0       0       0       0       0       0       0       0
       0       0       0       0       0       0       0       0       0       0
       0       0       0       0       0       0       0       0       0       0
       0       0       0       0       0       0       0       0       0       0
       0       0       0       0       0       0       0       0       0       0
       0       0       0       0       0       0       0       0       0       0
       0       0       0       0       0       0       0       0       0       0
       0       0       0       0       0       0       0       0       0       0
       0       0       0       0       0       0       0       0       0       0
       0       0       0       0       0       0       0       0       0       0
       0       0       0       0       0       0       0       0       0       0
       0       0       0       0       0       0       0       0       0       0
       0       0       0       0       0       0       0       0       0       0
       0       0       0       0       0       0       0       0       0       0
       0       0       0       0       0       0       0       0       0       0
       0       0       0       0       0       0       0       0       0       0
       0       0       0       0       0       0       0       0       0       0
       0       0       0       0       0       0       0       0       0       0
       0       0       0       0       0       0       0       0       0       0
       0       0       0       0       0       0       0       0       0       0
       0       0       0       0       0       0       0       0       0       0
       0       0       0       0       0       0       0       0       0       0
       0       0       0       0       0       0       0       0       0       0
       0       0       0       0       0       0       0       0       0       0
       0       0       0       0       0       0       0       0       0       0
       0       0       0       0       0       0       0       0       0       0
       0       0       0       0       0       0       0       0       0       0
       0       0       0       0       0       0       0       0       0       0
       0       0       0       0       0       0       0       0       0       0
       0       0       0       0       0       0       0       0       0       0
       0       0       0       0       0       0       0       0       0       0
       0       0       0       0       0       0       0       0       0       0
       0       0       0       0       0       0       0       0       0       0
       0       0       0       0       0       0       0       0       0       0
       0       0       0       0       0       0       0       0       0       0
       0       0       0       0       0       0       0       0       0       0
       0       0       0       0       0       0       0       0       0       0
       0       0       0       0       0       0       0       0       0       0
       0       0       0       0       0       0       0       0       0       0
       0       0       0       0       0       0       0       0       0       0
       0       0       0       0       0       0       0       0       0       0
       0       0       0       0       0       0       0       0       0       0
       0       0       0       0       0       0       0       0       0       0
       0       0       0       0       0       0       0       0       0       0
       0       0       0       0       0       0       0       0       0       0
       0       0       0       0       0       0       0       0       0       0
       0       0       0       0       0       0       0       0       0       0
       0       0       0       0       0       0       0       0       0       0
       0       0       0       0       0       0       0       0       0       0
       0       0       0       0       0       0       0       0       0       0
       0       0       0       0       0       0       0       0       0       0
       0       0       0       0       0       0       0       0       0       0
       0       0       0       0       0       0       0       0       0       0
       0       0       0       0       0       0       0       0       0       0
       0       0       0       0       0       0       0       0       0       0
       0       0       0       0       0       0       0       0       0       0
       0       0       0       0       0       0       0       0       0       0
       0       0       0       0       0       0       0       0       0       0
       0       0       0       0       0       0       0       0       0       0
       0       0       0       0       0       0       0       0       0       0
       0       0       0       0       0       0       0       0       0       0
       0       0       0       0       0       0       0       0       0       0
       0       0       0       0       0       0       0       0       0       0
       0       0       0       0       0       0       0       0       0       0
       0       0       0       0       0       0       0       0       0       0
       0       0       0       0       0       0       0       0       0       0
       0       0       0       0       0       0       0       0       0       0
       0       0       0       0       0       0       0       0       0       0
       0       0       0       0       0       0       0       0       0       0
       0       0       0       0       0       0       0       0       0       0
       0       0       0       0       0       0       0       0       0       0
       0       0       0       0       0       0       0       0       0       0
       0       0       0       0       0       0       0       0       0       0
       0       0       0       0       0       0       0       0       0       0
       0       0       0       0       0       0       0       0       0       0
       0       0       0       0       0       0       0       0       0       0
       0       0       0       0       0       0       0       0       0       0
       0       0       0       0       0       0       0       0       0       0
       0       0       0       0       0       0       0       0       0       0
       0       0       0       0       0       0       0       0       0       0
       0       0       0       0       0       0       0       0       0       0
       0       0       0       0       0       0       0       0       0       0
       0       0       0       0       0       0       0       0       0       0
       0       0       0       0       0       0       0       0       0       0
       0       0       0       0       0       0       0       0       0       0
       0       0       0       0       0       0       0       0       0       0
       0       0       0       0       0       0       0       0       0       0
       0       0       0       0       0       0       0       0       0       0
       0       0       0       0       0       0       0       0       0       0
       0       0       0       0       0       0       0       0       0       0
       0       0       0       0       0       0       0       0       0       0
       0       0       0       0       0       0       0       0       0       0
       0       0       0       0       0       0       0       0       0       0
       0       0       0       0       0       0       0       0       0       0
       0       0       0       0       0       0       0       0       0       0
       0       0       0       0       0       0       0       0       0       0
       0       0       0       0       0       0       0       0       0       0
       0       0       0       0       0       0       0       0       0       0
       0       0       0       0       0       0       0       0       0       0
       0       0       0       0       0       0       0       0       0       0
       0       0       0       0       0       0       0       0       0       0
       0       0       0       0       0       0       0       0       0       0
       0       0       0       0       0       0       0       0       0       0
       0       0       0       0       0       0       0       0       0       0
       0       0       0       0       0       0       0       0       0       0
       0       0       0       0       0       0       0       0       0       0
       0       0       0       0       0       0       0       0       0       0
       0       0       0       0       0       0       0       0       0       0
       0       0       0       0       0       0       0       0       0       0
       0       0       0       0       0       0       0       0       0       0
       0       0       0       0       0       0       0       0       0       0
       0       0       0       0       0       0       0       0       0       0
       0       0       0       0       0       0       0       0       0       0
       0       0       0       0       0       0       0       0       0       0
       0       0       0       0       0       0       0       0       0       0
       0       0       0       0       0       0       0       0       0       0
       0       0       0       0       0       0       0       0       0       0
       0       0       0       0       0       0       0       0       0       0
       0       0       0       0       0       0       0       0       0       0
       0       0       0       0       0       0       0       0       0       0
       0       0       0       0       0       0       0       0       0       0
       0       0       0       0       0       0       0       0       0       0
       0       0       0       0       0       0       0       0       0       0
       0       0       0       0       0       0       0       0       0       0
       0       0       0       0       0       0       0       0       0       0
       0       0       0       0       0       0       0       0       0       0
       0       0       0       0       0       0       0       0       0       0
       0       0       0       0       0       0       0       0       0       0
       0       0       0       0       0       0       0       0       0       0
       0       0       0       0       0       0       0       0       0       0
       0       0       0       0       0       0       0       0       0       0
       0       0       0       0       0       0       0       0       0       0
       0       0       0       0       0       0       0       0       0       0
       0       0       0       0       0       0       0       0       0       0
       0       0       0       0       0       0       0       0       0       0
       0       0       0       0       0       0       0       0       0       0
       0       0       0       0       0       0       0       0       0       0
       0       0       0       0       0       0       0       0       0       0
       0       0       0       0       0       0       0       0       0       0
       0       0       0       0       0       0       0       0       0       0
       0       0       0       0       0       0       0       0       0       0
       0       0       0       0       0       0       0       0       0       0
       0       0       0       0       0       0       0       0       0       0
       0       0       0       0       0       0       0       0       0       0
       0       0       0       0       0       0       0       0       0       0
       0       0       0       0       0       0       0       0       0       0
       0       0       0       0       0       0       0       0       0       0
       0       0       0       0       0       0       0       0       0       0
       0       0       0       0       0       0       0       0       0       0
       0       0       0       0       0       0       0       0       0       0
       0       0       0       0       0       0       0       0       0       0
       0       0       0       0       0       0       0       0       0       0
       0       0       0       0       0       0       0       0       0       0
       0       0       0       0       0       0       0       0       0       0
       0       0       0       0       0       0       0       0       0       0
       0       0       0       0       0       0       0       0       0       0
       0       0       0       0       0       0       0       0       0       0
       0       0       0       0       0       0       0       0       0       0
       0       0       0       0       0       0       0       0       0       0
       0       0       0       0       0       0       0       0       0       0
       0       0       0       0       0       0       0       0       0       0
       0       0       0       0       0       0       0       0       0       0
       0       0       0       0       0       0       0       0       0       0
       0       0       0       0       0       0       0       0       0       0
       0       0       0       0       0       0       0       0       0       0
       0       0       0       0       0       0       0       0       0       0
       0       0       0       0       0       0       0       0       0       0
       0       0       0       0       0       0       0       0       0       0
       0       0       0       0       0       0       0       0       0       0
       0       0       0       0       0       0       0       0       0       0
       0       0       0       0       0       0       0       0       0       0
       0       0       0       0       0       0       0       0       0       0
       0       0       0       0       0       0       0       0       0       0
       0       0       0       0       0       0       0       0       0       0
       0       0       0       0       0       0       0       0       0       0
       0       0       0       0       0       0       0       0       0       0
       0       0       0       0       0       0       0       0       0       0
       0       0       0       0       0       0       0       0       0       0
       0       0       0       0       0       0       0       0       0       0
       0       0       0       0       0       0       0       0       0       0
       0       0       0       0       0       0       0       0       0       0
       0       0       0       0       0       0       0       0       0       0
       0       0       0       0       0       0       0       0       0       0
       0       0       0       0       0       0       0       0       0       0
       0       0       0       0       0       0       0       0       0       0
       0       0       0       0       0       0       0       0       0       0
       0       0       0       0       0       0       0       0       0       0
       0       0       0       0       0       0       0       0       0       0
       0       0       0       0       0       0       0       0       0       0
       0       0       0       0       0       0       0       0       0       0
       0       0       0       0       0       0       0       0       0       0
       0       0       0       0       0       0       0       0       0       0
       0       0       0       0       0       0       0       0       0       0
       0       0       0       0       0       0       0       0       0       0
       0       0       0       0       0       0       0       0       0       0
       0       0       0       0       0       0       0       0       0       0
       0       0       0       0       0       0       0       0       0       0
       0       0       0       0       0       0       0       0       0       0
       0       0       0       0       0       0       0       0       0       0
       0       0       0       0       0       0       0       0       0       0
       0       0       0       0       0       0       0       0       0       0
       0       0       0       0       0       0       0       0       0       0
       0       0       0       0       0       0       0       0       0       0
       0       0       0       0       0       0       0       0       0       0
       0       0       0       0       0       0       0       0       0       0
       0       0       0       0       0       0       0       0       0       0
       0       0       0       0       0       0       0       0       0       0
       0       0       0       0       0       0       0       0       0       0
       0       0       0       0       0       0       0       0       0       0
       0       0       0       0       0       0       0       0       0       0
       0       0       0       0       0       0       0       0       0       0
       0       0       0       0       0       0       0       0       0       0
       0       0       0       0       0       0       0       0       0       0
       0       0       0       0       0       0       0       0       0       0
       0       0       0       0       0       0       0       0       0       0
       0       0       0       0       0       0       0       0       0       0
       0       0       0       0       0       0       0       0       0       0
       0       0       0       0       0       0       0       0       0       0
       0       0       0       0       0       0       0       0       0       0
       0       0       0       0       0       0       0       0       0       0
       0       0       0       0       0       0       0       0       0       0
       0       0       0       0       0       0       0       0       0       0
       0       0       0       0       0       0       0       0       0       0
       0       0       0       0       0       0       0       0       0       0
       0       0       0       0       0       0       0       0       0       0
       0       0       0       0       0       0       0       0       0       0
       0       0       0       0       0       0       0       0       0       0
       0       0       0       0       0       0       0       0       0       0
       0       0       0       0       0       0       0       0       0       0
       0       0       0       0       0       0       0       0       0       0
       0       0       0       0       0       0       0       0       0       0
       0       0       0       0       0       0       0       0       0       0
       0       0       0       0       0       0       0       0       0       0
       0       0       0       0       0       0       0       0       0       0
       0       0       0       0       0       0       0       0       0       0
       0       0       0       0       0       0       0       0       0       0
       0       0       0       0       0       0       0       0       0       0
       0       0       0       0       0       0       0       0       0       0
       0       0       0       0       0       0       0       0       0       0
       0       0       0       0       0       0       0       0       0       0
       0       0       0       0       0       0       0       0       0       0
       0       0       0       0       0       0       0       0       0       0
       0       0       0       0       0       0       0       0       0       0
       0       0       0       0       0       0       0       0       0       0
       0       0       0       0       0       0       0       0       0       0
       0       0       0       0       0       0       0       0       0       0
       0       0       0       0       0       0       0       0       0       0
       0       0       0       0       0       0       0       0       0       0
       0       0       0       0       0       0       0       0       0       0
       0       0       0       0       0       0       0       0       0       0
       0       0       0       0       0       0       0       0       0       0
       0       0       0       0       0       0       0       0       0       0
       0       0       0       0       0       0       0       0       0       0
       0       0       0       0       0       0       0       0       0       0
       0       0       0       0       0       0       0       0       0       0
       0       0       0       0       0       0       0       0       0       0
       0       0       0       0       0       0       0       0       0       0
       0       0       0       0       0       0       0       0       0       0
       0       0       0       0       0       0       0       0       0       0
       0       0       0       0       0       0       0       0       0       0
       0       0       0       0       0       0       0       0       0       0
       0       0       0       0       0       0       0       0       0       0
       0       0       0       0       0       0       0       0       0       0
       0       0       0       0       0       0       0       0       0       0
       0       0       0       0       0       0       0       0       0       0
       0       0       0       0       0       0       0       0       0       0
       0       0       0       0       0       0       0       0       0       0
       0       0       0       0       0       0       0       0       0       0
       0       0       0       0       0       0       0       0       0       0
       0       0       0       0       0       0       0       0       0       0
       0       0       0       0       0       0       0       0       0       0
       0       0       0       0       0       0       0       0       0       0
       0       0       0       0       0       0       0       0       0       0
       0       0       0       0       0       0       0       0       0       0
       0       0       0       0       0       0       0       0       0       0
       0       0       0       0       0       0       0       0       0       0
       0       0       0       0       0       0       0       0       0       0
       0       0       0       0       0       0       0       0       0       0
       0       0       0       0       0       0       0       0       0       0
       0       0       0       0       0       0       0       0       0       0
       0       0       0       0       0       0       0       0       0       0
       0       0       0       0       0       0       0       0       0       0
       0       0       0       0       0       0       0       0       0       0
       0       0       0       0       0       0       0       0       0       0
       0       0       0       0       0       0       0       0       0       0
       0       0       0       0       0       0       0       0       0       0
       0       0       0       0       0       0       0       0       0       0
       0       0       0       0       0       0       0       0       0       0
       0       0       0       0       0       0       0       0       0       0
       0       0       0       0       0       0       0       0       0       0
       0       0       0       0       0       0       0       0       0       0
       0       0       0       0       0       0       0       0       0       0
       0       0       0       0       0       0       0       0       0       0
       0       0       0       0       0       0       0       0       0       0
       0       0       0       0       0       0       0       0       0       0
       0       0       0       0       0       0       0       0       0       0
       0       0       0       0       0       0       0       0       0       0
       0       0       0       0       0       0       0       0       0       0
       0       0       0       0       0       0       0       0       0       0
       0       0       0       0       0       0       0       0       0       0
       0       0       0       0       0       0       0       0       0       0
       0       0       0       0       0       0       0       0       0       0
       0       0       0       0       0       0       0       0       0       0
       0       0       0       0       0       0       0       0       0       0
       0       0       0       0       0       0       0       0       0       0
       0       0       0       0       0       0       0       0       0       0
       0       0       0       0       0       0       0       0       0       0
       0       0       0       0       0       0       0       0       0       0
       0       0       0       0       0       0       0       0       0       0
       0       0       0       0       0       0       0       0       0       0
       0       0       0       0       0       0       0       0       0       0
       0       0       0       0       0       0       0       0       0       0
       0       0       0       0       0       0       0       0       0       0
       0       0       0       0       0       0       0       0       0       0
       0       0       0       0       0       0       0       0       0       0
       0       0       0       0       0       0       0       0       0       0
       0       0       0       0       0       0       0       0       0       0
       0       0       0       0       0       0       0       0       0       0
       0       0       0       0       0       0       0       0       0       0
       0       0       0       0       0       0       0       0       0       0
       0       0       0       0       0       0       0       0       0       0
       0       0       0       0       0       0       0       0       0       0
       0       0       0       0       0       0       0       0       0       0
       0       0       0       0       0       0       0       0       0       0
       0       0       0       0       0       0       0       0       0       0
       0       0       0       0       0       0       0       0       0       0
       0       0       0       0       0       0       0       0       0       0
       0       0       0       0       0       0       0       0       0       0
       0       0       0       0       0       0       0       0       0       0
       0       0       0       0       0       0       0       0       0       0
       0       0       0       0       0       0       0       0       0       0
       0       0       0       0       0       0       0       0       0       0
       0       0       0       0       0       0       0       0       0       0
       0       0       0       0       0       0       0       0       0       0
       0       0       0       0       0       0       0       0       0       0
       0       0       0       0       0       0       0       0       0       0
       0       0       0       0       0       0       0       0       0       0
       0       0       0       0       0       0       0       0       0       0
       0       0       0       0       0       0       0       0       0       0
       0       0       0       0       0       0       0       0       0       0
       0       0       0       0       0       0       0       0       0       0
       0       0       0       0       0       0       0       0       0       0
       0       0       0       0       0       0       0       0       0       0
       0       0       0       0       0       0       0       0       0       0
       0       0       0       0       0       0       0       0       0       0
       0       0       0       0       0       0       0       0       0       0
       0       0       0       0       0       0       0       0       0       0
       0       0       0       0       0       0       0       0       0       0
       0       0       0       0       0       0       0       0       0       0
       0       0       0       0       0       0       0       0       0       0
       0       0       0       0       0       0       0       0       0       0
       0       0       0       0       0       0       0       0       0       0
       0       0       0       0       0       0       0       0       0       0
       0       0       0       0       0       0       0       0       0       0
       0       0       0       0       0       0       0       0       0       0
       0       0       0       0       0       0       0       0       0       0
       0       0       0       0       0       0       0       0       0       0
       0       0       0       0       0       0       0       0       0       0
       0       0       0       0       0       0       0       0       0       0
       0       0       0       0       0       0       0       0       0       0
       0       0       0       0       0       0       0       0       0       0
       0       0       0       0       0       0       0       0       0       0
       0       0       0       0       0       0       0       0       0       0
       0       0       0       0       0       0       0       0       0       0
       0       0       0       0       0       0       0       0       0       0
       0       0       0       0       0       0       0       0       0       0
       0       0       0       0       0       0       0       0       0       0
       0       0       0       0       0       0       0       0       0       0
       0       0       0       0       0       0       0       0       0       0
       0       0       0       0       0       0       0       0       0       0
       0       0       0       0       0       0       0       0       0       0
       0       0       0       0       0       0       0       0       0       0
       0       0       0       0       0       0       0       0       0       0
       0       0       0       0       0       0       0       0       0       0
       0       0       0       0       0       0       0       0       0       0
       0       0       0       0       0       0       0       0       0       0
       0       0       0       0       0       0       0       0       0       0
       0       0       0       0       0       0       0       0       0       0
       0       0       0       0       0       0       0       0       0       0
       0       0       0       0       0       0       0       0       0       0
       0       0       0       0       0       0       0       0       0       0
       0       0       0       0       0       0       0       0       0       0
       0       0       0       0       0       0       0       0       0       0
       0       0       0       0       0       0       0       0       0       0
       0       0       0       0       0       0       0       0       0       0
       0       0       0       0       0       0       0       0       0       0
       0       0       0       0       0       0       0       0       0       0
       0       0       0       0       0       0       0       0       0       0
       0       0       0       0       0       0       0       0       0       0
       0       0       0       0       0       0       0       0       0       0
       0       0       0       0       0       0       0       0       0       0
       0       0       0       0       0       0       0       0       0       0
       0       0       0       0       0       0       0       0       0       0
       0       0       0       0       0       0       0       0       0       0
       0       0       0       0       0       0       0       0       0       0
       0       0       0       0       0       0       0       0       0       0
       0       0       0       0       0       0       0       0       0       0
       0       0       0       0       0       0       0       0       0       0
       0       0       0       0       0       0       0       0       0       0
       0       0       0       0       0       0       0       0       0       0
       0       0       0       0       0       0       0       0       0       0
       0       0       0       0       0       0       0       0       0       0
       0       0       0       0       0       0       0       0       0       0
       0       0       0       0       0       0       0       0       0       0
       0       0       0       0       0       0       0       0       0       0
       0       0       0       0       0       0       0       0       0       0
       0       0       0       0       0       0       0       0       0       0
       0       0       0       0       0       0       0       0       0       0
       0       0       0       0       0       0       0       0       0       0
       0       0       0       0       0       0       0       0       0       0
       0       0       0       0       0       0       0       0       0       0
       0       0       0       0       0       0       0       0       0       0
       0       0       0       0       0       0       0       0       0       0
       0       0       0       0       0       0       0       0       0       0
       0       0       0       0       0       0       0       0       0       0
       0       0       0       0       0       0       0       0       0       0
       0       0       0       0       0       0       0       0       0       0
       0       0       0       0       0       0       0       0       0       0
       0       0       0       0       0       0       0       0       0       0
       0       0       0       0       0       0       0       0       0       0
       0       0       0       0       0       0       0       0       0       0
       0       0       0       0       0       0       0       0       0       0
       0       0       0       0       0       0       0       0       0       0
       0       0       0       0       0       0       0       0       0       0
       0       0       0       0       0       0       0       0       0       0
       0       0       0       0       0       0       0       0       0       0
       0       0       0       0       0       0       0       0       0       0
       0       0       0       0       0       0       0       0       0       0
       0       0       0       0       0       0       0       0       0       0
       0       0       0       0       0       0       0       0       0       0
       0       0       0       0       0       0       0       0       0       0
       0       0       0       0       0       0       0       0       0       0
       0       0       0       0       0       0       0       0       0       0
       0       0       0       0       0       0       0       0       0       0
       0       0       0       0       0       0       0       0       0       0
       0       0       0       0       0       0       0       0       0       0
       0       0       0       0       0       0       0       0       0       0
       0       0       0       0       0       0       0       0       0       0
       0       0       0       0       0       0       0       0       0       0
       0       0       0       0       0       0       0       0       0       0
       0       0       0       0       0       0       0       0       0       0
       0       0       0       0       0       0       0       0       0       0
       0       0       0       0       0       0       0       0       0       0
       0       0       0       0       0       0       0       0       0       0
       0       0       0       0       0       0       0       0       0       0
       0       0       0       0       0       0       0       0       0       0
       0       0       0       0       0       0       0       0       0       0
       0       0       0       0       0       0       0       0       0       0
       0       0       0       0       0       0       0       0       0       0
       0       0       0       0       0       0       0       0       0       0
       0       0       0       0       0       0       0       0       0       0
       0       0       0       0       0       0       0       0       0       0
       0       0       0       0       0       0       0       0       0       0
       0       0       0       0       0       0       0       0       0       0
       0       0       0       0       0       0       0       0       0       0
       0       0       0       0       0       0       0       0       0       0
       0       0       0       0       0       0       0       0       0       0
       0       0       0       0       0       0       0       0       0       0
       0       0       0       0       0       0       0       0       0       0
       0       0       0       0       0       0       0       0       0       0
       0       0       0       0       0       0       0       0       0       0
       0       0       0       0       0       0       0       0       0       0
       0       0       0       0       0       0       0       0       0       0
       0       0       0       0       0       0       0       0       0       0
       0       0       0       0       0       0       0       0       0       0
       0       0       0       0       0       0       0       0       0       0
       0       0       0       0       0       0       0       0       0       0
       0       0       0       0       0       0       0       0       0       0
       0       0       0       0       0       0       0       0       0       0
       0       0       0       0       0       0       0       0       0       0
       0       0       0       0       0       0       0       0       0       0
       0       0       0       0       0       0       0       0       0       0
       0       0       0       0       0       0       0       0       0       0
       0       0       0       0       0       0       0       0       0       0
       0       0       0       0       0       0       0       0       0       0
       0       0       0       0       0       0       0       0       0       0
       0       0       0       0       0       0       0       0       0       0
       0       0       0       0       0       0       0       0       0       0
       0       0       0       0       0       0       0       0       0       0
       0       0       0       0       0       0       0       0       0       0
       0       0       0       0       0       0       0       0       0       0
       0       0       0       0       0       0       0       0       0       0
       0       0       0       0       0       0       0       0       0       0
       0       0       0       0       0       0       0       0       0       0
       0       0       0       0       0       0       0       0       0       0
       0       0       0       0       0       0       0       0       0       0
       0       0       0       0       0       0       0       0       0       0
       0       0       0       0       0       0       0       0       0       0
       0       0       0       0       0       0       0       0       0       0
       0       0       0       0       0       0       0       0       0       0
       0       0       0       0       0       0       0       0       0       0
       0       0       0       0       0       0       0       0       0       0
       0       0       0       0       0       0       0       0       0       0
       0       0       0       0       0       0       0       0       0       0
       0       0       0       0       0       0       0       0       0       0
       0       0       0       0       0       0       0       0       0       0
       0       0       0       0       0       0       0       0       0       0
       0       0       0       0       0       0       0       0       0       0
       0       0       0       0       0       0       0       0       0       0
       0       0       0       0       0       0       0       0       0       0
       0       0       0       0       0       0       0       0       0       0
       0       0       0       0       0       0       0       0       0       0
       0       0       0       0       0       0       0       0       0       0
       0       0       0       0       0       0       0       0       0       0
       0       0       0       0       0       0       0       0       0       0
       0       0       0       0       0       0       0       0       0       0
       0       0       0       0       0       0       0       0       0       0
       0       0       0       0       0       0       0       0       0       0
       0       0       0       0       0       0       0       0       0       0
       0       0       0       0       0       0       0       0       0       0
       0       0       0       0       0       0       0       0       0       0
       0       0       0       0       0       0       0       0       0       0
       0       0       0       0       0       0       0       0       0       0
       0       0       0       0       0       0       0       0       0       0
       0       0       0       0       0       0       0       0       0       0
       0       0       0       0       0       0       0       0       0       0
       0       0       0       0       0       0       0       0       0       0
       0       0       0       0       0       0       0       0       0       0
       0       0       0       0       0       0       0       0       0       0
       0       0       0       0       0       0       0       0       0       0
       0       0       0       0       0       0       0       0       0       0
       0       0       0       0       0       0       0       0       0       0
       0       0       0       0       0       0       0       0       0       0
       0       0       0       0       0       0       0       0       0       0
       0       0       0       0       0       0       0       0       0       0
       0       0       0       0       0       0       0       0       0       0
       0       0       0       0       0       0       0       0       0       0
       0       0       0       0       0       0       0       0       0       0
       0       0       0       0       0       0       0       0       0       0
       0       0       0       0       0       0       0       0       0       0
       0       0       0       0       0       0       0       0       0       0
       0       0       0       0       0       0       0       0       0       0
       0       0       0       0       0       0       0       0       0       0
       0       0       0       0       0       0       0       0       0       0
       0       0       0       0       0       0       0       0       0       0
       0       0       0       0       0       0       0       0       0       0
       0       0       0       0       0       0       0       0       0       0
       0       0       0       0       0       0       0       0       0       0
       0       0       0       0       0       0       0       0       0       0
       0       0       0       0       0       0       0       0       0       0
       0       0       0       0       0       0       0       0       0       0
       0       0       0       0       0       0       0       0       0       0
       0       0       0       0       0       0       0       0       0       0
       0       0       0       0       0       0       0       0       0       0
       0       0       0       0       0       0       0       0       0       0
       0       0       0       0       0       0       0       0       0       0
       0       0       0       0       0       0       0       0       0       0
       0       0       0       0       0       0       0       0       0       0
       0       0       0       0       0       0       0       0       0       0
       0       0       0       0       0       0       0       0       0       0
       0       0       0       0       0       0       0       0       0       0
       0       0       0       0       0       0       0       0       0       0
       0       0       0       0       0       0       0       0       0       0
       0       0       0       0       0       0       0       0       0       0
       0       0       0       0       0       0       0       0       0       0
       0       0       0       0       0       0       0       0       0       0
       0       0       0       0       0       0       0       0       0       0
       0       0       0       0       0       0       0       0       0       0
       0       0       0       0       0       0       0       0       0       0
       0       0       0       0       0       0       0       0       0       0
       0       0       0       0       0       0       0       0       0       0
       0       0       0       0       0       0       0       0       0       0
       0       0       0       0       0       0       0       0       0       0
       0       0       0       0       0       0       0       0       0       0
       0       0       0       0       0       0       0       0       0       0
       0       0       0       0       0       0       0       0       0       0
       0       0       0       0       0       0       0       0       0       0
       0       0       0       0       0       0       0       0       0       0
       0       0       0       0       0       0       0       0       0       0
       0       0       0       0       0       0       0       0       0       0
       0       0       0       0       0       0       0       0       0       0
       0       0       0       0       0       0       0       0       0       0
       0       0       0       0       0       0       0       0       0       0
       0       0       0       0       0       0       0       0       0       0
       0       0       0       0       0       0       0       0       0       0
       0       0       0       0       0       0       0       0       0       0
       0       0       0       0       0       0       0       0       0       0
       0       0       0       0       0       0       0       0       0       0
       0       0       0       0       0       0       0       0       0       0
       0       0       0       0       0       0       0       0       0       0
       0       0       0       0       0       0       0       0       0       0
       0       0       0       0       0       0       0       0       0       0
       0       0       0       0       0       0       0       0       0       0
       0       0       0       0       0       0       0       0       0       0
       0       0       0       0       0       0       0       0       0       0
       0       0       0       0       0       0       0       0       0       0
       0       0       0       0       0       0       0       0       0       0
       0       0       0       0       0       0       0       0       0       0
       0       0       0       0       0       0       0       0       0       0
       0       0       0       0       0       0       0       0       0       0
       0       0       0       0       0       0       0       0       0       0
       0       0       0       0       0       0       0       0       0       0
       0       0       0       0       0       0       0       0       0       0
       0       0       0       0       0       0       0       0       0       0
       0       0       0       0       0       0       0       0       0       0
       0       0       0       0       0       0       0       0       0       0
       0       0       0       0       0       0       0       0       0       0
       0       0       0       0       0       0       0       0       0       0
       0       0       0       0       0       0       0       0       0       0
       0       0       0       0       0       0       0       0       0       0
       0       0       0       0       0       0       0       0       0       0
       0       0       0       0       0       0       0       0       0       0
       0       0       0       0       0       0       0       0       0       0
       0       0       0       0       0       0       0       0       0       0
       0       0       0       0       0       0       0       0       0       0
       0       0       0       0       0       0       0       0       0       0
       0       0       0       0       0       0       0       0       0       0
       0       0       0       0       0       0       0       0       0       0
       0       0       0       0       0       0       0       0       0       0
       0       0       0       0       0       0       0       0       0       0
       0       0       0       0       0       0       0       0       0       0
       0       0       0       0       0       0       0       0       0       0
       0       0       0       0       0       0       0       0       0       0
       0       0       0       0       0       0       0       0       0       0
       0       0       0       0       0       0       0       0       0       0
       0       0       0       0       0       0       0       0       0       0
       0       0       0       0       0       0       0       0       0       0
       0       0       0       0       0       0       0       0       0       0
       0       0       0       0       0       0       0       0       0       0
       0       0       0       0       0       0       0       0       0       0
       0       0       0       0       0       0       0       0       0       0
       0       0       0       0       0       0       0       0       0       0
       0       0       0       0       0       0       0       0       0       0
       0       0       0       0       0       0       0       0       0       0
       0       0       0       0       0       0       0       0       0       0
       0       0       0       0       0       0       0       0       0       0
       0       0       0       0       0       0       0       0       0       0
       0       0       0       0       0       0       0       0       0       0
       0       0       0       0       0       0       0       0       0       0
       0       0       0       0       0       0       0       0       0       0
       0       0       0       0       0       0       0       0       0       0
       0       0       0       0       0       0       0       0       0       0
       0       0       0       0       0       0       0       0       0       0
       0       0       0       0       0       0       0       0       0       0
       0       0       0       0       0       0       0       0       0       0
       0       0       0       0       0       0       0       0       0       0
       0       0       0       0       0       0       0       0       0       0
       0       0       0       0       0       0       0       0       0       0
       0       0       0       0       0       0       0       0       0       0
       0       0       0       0       0       0       0       0       0       0
       0       0       0       0       0       0       0       0       0       0
       0       0       0       0       0       0       0       0       0       0
       0       0       0       0       0       0       0       0       0       0
       0       0       0       0       0       0       0       0       0       0
       0       0       0       0       0       0       0       0       0       0
       0       0       0       0       0       0       0       0       0       0
       0       0       0       0       0       0       0       0       0       0
       0       0       0       0       0       0       0       0       0       0
       0       0       0       0       0       0       0       0       0       0
       0       0       0       0       0       0       0       0       0       0
       0       0       0       0       0       0       0       0       0       0
       0       0       0       0       0       0       0       0       0       0
       0       0       0       0       0       0       0       0       0       0
       0       0       0       0       0       0       0       0       0       0
       0       0       0       0       0       0       0       0       0       0
       0       0       0       0       0       0       0       0       0       0
       0       0       0       0       0       0       0       0       0       0
       0       0       0       0       0       0       0       0       0       0
       0       0       0       0       0       0       0       0       0       0
       0       0       0       0       0       0       0       0       0       0
       0       0       0       0       0       0       0       0       0       0
       0       0       0       0       0       0       0       0       0       0
       0       0       0       0       0       0       0       0       0       0
       0       0       0       0       0       0       0       0       0       0
       0       0       0       0       0       0       0       0       0       0
       0       0       0       0       0       0       0       0       0       0
       0       0       0       0       0       0       0       0       0       0
       0       0       0       0       0       0       0       0       0       0
       0       0       0       0       0       0       0       0       0       0
       0       0       0       0       0       0       0       0       0       0
       0       0       0       0       0       0       0       0       0       0
       0       0       0       0       0       0       0       0       0       0
       0       0       0       0       0       0       0       0       0       0
       0       0       0       0       0       0       0       0       0       0
       0       0       0       0       0       0       0       0       0       0
       0       0       0       0       0       0       0       0       0       0
       0       0       0       0       0       0       0       0       0       0
       0       0       0       0       0       0       0       0       0       0
       0       0       0       0       0       0       0       0       0       0
       0       0       0       0       0       0       0       0       0       0
       0       0       0       0       0       0       0       0       0       0
       0       0       0       0       0       0       0       0       0       0
       0       0       0       0       0       0       0       0       0       0
       0       0       0       0       0       0       0       0       0       0
       0       0       0       0       0       0       0       0       0       0
       0       0       0       0       0       0       0       0       0       0
       0       0       0       0       0       0       0       0       0       0
       0       0       0       0       0       0       0       0       0       0
       0       0       0       0       0       0       0       0       0       0
       0       0       0       0       0       0       0       0       0       0
       0       0       0       0       0       0       0       0       0       0
       0       0       0       0       0       0       0       0       0       0
       0       0       0       0       0       0       0       0       0       0
       0       0       0       0       0       0       0       0       0       0
       0       0       0       0       0       0       0       0       0       0
       0       0       0       0       0       0       0       0       0       0
       0       0       0       0       0       0       0       0       0       0
       0       0       0       0       0       0       0       0       0       0
       0       0       0       0       0       0       0       0       0       0
       0       0       0       0       0       0       0       0       0       0
       0       0       0       0       0       0       0       0       0       0
       0       0       0       0       0       0       0       0       0       0
       0       0       0       0       0       0       0       0       0       0
       0       0       0       0       0       0       0       0       0       0
       0       0       0       0       0       0       0       0       0       0
       0       0       0       0       0       0       0       0       0       0
       0       0       0       0       0       0       0       0       0       0
       0       0       0       0       0       0       0       0       0       0
       0       0       0       0       0       0       0       0       0       0
       0       0       0       0       0       0       0       0       0       0
       0       0       0       0       0       0       0       0       0       0
       0       0       0       0       0       0       0       0       0       0
       0       0       0       0       0       0       0       0       0       0
       0       0       0       0       0       0       0       0       0       0
       0       0       0       0       0       0       0       0       0       0
       0       0       0       0       0       0       0       0       0       0
       0       0       0       0       0       0       0       0       0       0
       0       0       0       0       0       0       0       0       0       0
       0       0       0       0       0       0       0       0       0       0
       0       0       0       0       0       0       0       0       0       0
       0       0       0       0       0       0       0       0       0       0
       0       0       0       0       0       0       0       0       0       0
       0       0       0       0       0       0       0       0       0       0
       0       0       0       0       0       0       0       0       0       0
       0       0       0       0       0       0       0       0       0       0
       0       0       0       0       0       0       0       0       0       0
       0       0       0       0       0       0       0       0       0       0
       0       0       0       0       0       0       0       0       0       0
       0       0       0       0       0       0       0       0       0       0
       0       0       0       0       0       0       0       0       0       0
       0       0       0       0       0       0       0       0       0       0
       0       0       0       0       0       0       0       0       0       0
       0       0       0       0       0       0       0       0       0       0
       0       0       0       0       0       0       0       0       0       0
       0       0       0       0       0       0       0       0       0       0
       0       0       0       0       0       0       0       0       0       0
       0       0       0       0       0       0       0       0       0       0
       0       0       0       0       0       0       0       0       0       0
       0       0       0       0       0       0       0       0       0       0
       0       0       0       0       0       0       0       0       0       0
       0       0       0       0       0       0       0       0       0       0
       0       0       0       0       0       0       0       0       0       0
       0       0       0       0       0       0       0       0       0       0
       0       0       0       0       0       0       0       0       0       0
       0       0       0       0       0       0       0       0       0       0
       0       0       0       0       0       0       0       0       0       0
       0       0       0       0       0       0       0       0       0       0
       0       0       0       0       0       0       0       0       0       0
       0       0       0       0       0       0       0       0       0       0
       0       0       0       0       0       0       0       0       0       0
       0       0       0       0       0       0       0       0       0       0
       0       0       0       0       0       0       0       0       0       0
       0       0       0       0       0       0       0       0       0       0
       0       0       0       0       0       0       0       0       0       0
       0       0       0       0       0       0       0       0       0       0
       0       0       0       0       0       0       0       0       0       0
       0       0       0       0       0       0       0       0       0       0
       0       0       0       0       0       0       0       0       0       0
       0       0       0       0       0       0       0       0       0       0
       0       0       0       0       0       0       0       0       0       0
       0       0       0       0       0       0       0       0       0       0
       0       0       0       0       0       0       0       0       0       0
       0       0       0       0       0       0       0       0       0       0
       0       0       0       0       0       0       0       0       0       0
       0       0       0       0       0       0       0       0       0       0
       0       0       0       0       0       0       0       0       0       0
       0       0       0       0       0       0       0       0       0       0
       0       0       0       0       0       0       0       0       0       0
       0       0       0       0       0       0       0       0       0       0
       0       0       0       0       0       0       0       0       0       0
       0       0       0       0       0       0       0       0       0       0
       0       0       0       0       0       0       0       0       0       0
       0       0       0       0       0       0       0       0       0       0
       0       0       0       0       0       0       0       0       0       0
       0       0       0       0       0       0       0       0       0       0
       0       0       0       0       0       0       0       0       0       0
       0       0       0       0       0       0       0       0       0       0
       0       0       0       0       0       0       0       0       0       0
       0       0       0       0       0       0       0       0       0       0
       0       0       0       0       0       0       0       0       0       0
       0       0       0       0       0       0       0       0       0       0
       0       0       0       0       0       0       0       0       0       0
       0       0       0       0       0       0       0       0       0       0
       0       0       0       0       0       0       0       0       0       0
       0       0       0       0       0       0       0       0       0       0
       0       0       0       0       0       0       0       0       0       0
       0       0       0       0       0       0       0       0       0       0
       0       0       0       0       0       0       0       0       0       0
       0       0       0       0       0       0       0       0       0       0
       0       0       0       0       0       0       0       0       0       0
       0       0       0       0       0       0       0       0       0       0
       0       0       0       0       0       0       0       0       0       0
       0       0       0       0       0       0       0       0       0       0
       0       0       0       0       0       0       0       0       0       0
       0       0       0       0       0       0       0       0       0       0
       0       0       0       0       0       0       0       0       0       0
       0       0       0       0       0       0       0       0       0       0
       0       0       0       0       0       0       0       0       0       0
       0       0       0       0       0       0       0       0       0       0
       0       0       0       0       0       0       0       0       0       0
       0       0       0       0       0       0       0       0       0       0
       0       0       0       0       0       0       0       0       0       0
       0       0       0       0       0       0       0       0       0       0
       0       0       0       0       0       0       0       0       0       0
       0       0       0       0       0       0       0       0       0       0
       0       0       0       0       0       0       0       0       0       0
       0       0       0       0       0       0       0       0       0       0
       0       0       0       0       0       0       0       0       0       0
       0       0       0       0       0       0       0       0       0       0
       0       0       0       0       0       0       0       0       0       0
       0       0       0       0       0       0       0       0       0       0
       0       0       0       0       0       0       0       0       0       0
       0       0       0       0       0       0       0       0       0       0
       0       0       0       0       0       0       0       0       0       0
       0       0       0       0       0       0       0       0       0       0
       0       0       0       0       0       0       0       0       0       0
       0       0       0       0       0       0       0       0       0       0
       0       0       0       0       0       0       0       0       0       0
       0       0       0       0       0       0       0       0       0       0
       0       0       0       0       0       0       0       0       0       0
       0       0       0       0       0       0       0       0       0       0
       0       0       0       0       0       0       0       0       0       0
       0       0       0       0       0       0       0       0       0       0
       0       0       0       0       0       0       0       0       0       0
       0       0       0       0       0       0       0       0       0       0
       0       0       0       0       0       0       0       0       0       0
       0       0       0       0       0       0       0       0       0       0
       0       0       0       0       0       0       0       0       0       0
       0       0       0       0       0       0       0       0       0       0
       0       0       0       0       0       0       0       0       0       0
       0       0       0       0       0       0       0       0       0       0
       0       0       0       0       0       0       0       0       0       0
       0       0       0       0       0       0       0       0       0       0
       0       0       0       0       0       0       0       0       0       0
       0       0       0       0       0       0       0       0       0       0
       0       0       0       0       0       0       0       0       0       0
       0       0       0       0       0       0       0       0       0       0
       0       0       0       0       0       0       0       0       0       0
       0       0       0       0       0       0       0       0       0       0
       0       0       0       0       0       0       0       0       0       0
       0       0       0       0       0       0       0       0       0       0
       0       0       0       0       0       0       0       0       0       0
       0       0       0       0       0       0       0       0       0       0
       0       0       0       0       0       0       0       0       0       0
       0       0       0       0       0       0       0       0       0       0
       0       0       0       0       0       0       0       0       0       0
       0       0       0       0       0       0       0       0       0       0
       0       0       0       0       0       0       0       0       0       0
       0       0       0       0       0       0       0       0       0       0
       0       0       0       0       0       0       0       0       0       0
       0       0       0       0       0       0       0       0       0       0
       0       0       0       0       0       0       0       0       0       0
       0       0       0       0       0       0       0       0       0       0
       0       0       0       0       0       0       0       0       0       0
       0       0       0       0       0       0       0       0       0       0
       0       0       0       0       0       0       0       0       0       0
       0       0       0       0       0       0       0       0       0       0
       0       0       0       0       0       0       0       0       0       0
       0       0       0       0       0       0       0       0       0       0
       0       0       0       0       0       0       0       0       0       0
       0       0       0       0       0       0       0       0       0       0
       0       0       0       0       0       0       0       0       0       0
       0       0       0       0       0       0       0       0       0       0
       0       0       0       0       0       0       0       0       0       0
       0       0       0       0       0       0       0       0       0       0
       0       0       0       0       0       0       0       0       0       0
       0       0       0       0       0       0       0       0       0       0
       0       0       0       0       0       0       0       0       0       0
       0       0       0       0       0       0       0       0       0       0
       0       0       0       0       0       0       0       0       0       0
       0       0       0       0       0       0       0       0       0       0
       0       0       0       0       0       0       0       0       0       0
       0       0       0       0       0       0       0       0       0       0
       0       0       0       0       0       0       0       0       0       0
       0       0       0       0       0       0       0       0       0       0
       0       0       0       0       0       0       0       0       0       0
       0       0       0       0       0       0       0       0       0       0
       0       0       0       0       0       0       0       0       0       0
       0       0       0       0       0       0       0       0       0       0
       0       0       0       0       0       0       0       0       0       0
       0       0       0       0       0       0       0       0       0       0
       0       0       0       0       0       0       0       0       0       0
       0       0       0       0       0       0       0       0       0       0
       0       0       0       0       0       0       0       0       0       0
       0       0       0       0       0       0       0       0       0       0
       0       0       0       0       0       0       0       0       0       0
       0       0       0       0       0       0       0       0       0       0
       0       0       0       0       0       0       0       0       0       0
       0       0       0       0       0       0       0       0       0       0
       0       0       0       0       0       0       0       0       0       0
       0       0       0       0       0       0       0       0       0       0
       0       0       0       0       0       0       0       0       0       0
       0       0       0       0       0       0       0       0       0       0
       0       0       0       0       0       0       0       0       0       0
       0       0       0       0       0       0       0       0       0       0
       0       0       0       0       0       0       0       0       0       0
       0       0       0       0       0       0       0       0       0       0
       0       0       0       0       0       0       0       0       0       0
       0       0       0       0       0       0       0       0       0       0
       0       0       0       0       0       0       0       0       0       0
       0       0       0       0       0       0       0       0       0       0
       0       0       0       0       0       0       0       0       0       0
       0       0       0       0       0       0       0       0       0       0
       0       0       0       0       0       0       0       0       0       0
       0       0       0       0       0       0       0       0       0       0
       0       0       0       0       0       0       0       0       0       0
       0       0       0       0       0       0       0       0       0       0
       0       0       0       0       0       0       0       0       0       0
       0       0       0       0       0       0       0       0       0       0
       0       0       0       0       0       0       0       0       0       0
       0       0       0       0       0       0       0       0       0       0
       0       0       0       0       0       0       0       0       0       0
       0       0       0       0       0       0       0       0       0       0
       0       0       0       0       0       0       0       0       0       0
       0       0       0       0       0       0       0       0       0       0
       0       0       0       0       0       0       0       0       0       0
       0       0       0       0       0       0       0       0       0       0
       0       0       0       0       0       0       0       0       0       0
       0       0       0       0       0       0       0       0       0       0
       0       0       0       0       0       0       0       0       0       0
       0       0       0       0       0       0       0       0       0       0
       0       0       0       0       0       0       0       0       0       0
       0       0       0       0       0       0       0       0       0       0
       0       0       0       0       0       0       0       0       0       0
       0       0       0       0       0       0       0       0       0       0
       0       0       0       0       0       0       0       0       0       0
       0       0       0       0       0       0       0       0       0       0
       0       0       0       0       0       0       0       0       0       0
       0       0       0       0       0       0       0       0       0       0
       0       0       0       0       0       0       0       0       0       0
       0       0       0       0       0       0       0       0       0       0
       0       0       0       0       0       0       0       0       0       0
       0       0       0       0       0       0       0       0       0       0
       0       0       0       0       0       0       0       0       0       0
       0       0       0       0       0       0       0       0       0       0
       0       0       0       0       0       0       0       0       0       0
       0       0       0       0       0       0       0       0       0       0
       0       0       0       0       0       0       0       0       0       0
       0       0       0       0       0       0       0       0       0       0
       0       0       0       0       0       0       0       0       0       0
       0       0       0       0       0       0       0       0       0       0
       0       0       0       0       0       0       0       0       0       0
       0       0       0       0       0       0       0       0       0       0
       0       0       0       0       0       0       0       0       0       0
       0       0       0       0       0       0       0       0       0       0
       0       0       0       0       0       0       0       0       0       0
       0       0       0       0       0       0       0       0       0       0
       0       0       0       0       0       0       0       0       0       0
       0       0       0       0       0       0       0       0       0       0
       0       0       0       0       0       0       0       0       0       0
       0       0       0       0       0       0       0       0       0       0
       0       0       0       0       0       0       0       0       0       0
       0       0       0       0       0       0       0       0       0       0
       0       0       0       0       0       0       0       0       0       0
       0       0       0       0       0       0       0       0       0       0
       0       0       0       0       0       0       0       0       0       0
       0       0       0       0       0       0       0       0       0       0
       0       0       0       0       0       0       0       0       0       0
       0       0       0       0       0       0       0       0       0       0
       0       0       0       0       0       0       0       0       0       0
       0       0       0       0       0       0       0       0       0       0
       0       0       0       0       0       0       0       0       0       0
       0       0       0       0       0       0       0       0       0       0
       0       0       0       0       0       0       0       0       0       0
       0       0       0       0       0       0       0       0       0       0
       0       0       0       0       0       0       0       0       0       0
       0       0       0       0       0       0       0       0       0       0
       0       0       0       0       0       0       0       0       0       0
       0       0       0       0       0       0       0       0       0       0
       0       0       0       0       0       0       0       0       0       0
       0       0       0       0       0       0       0       0       0       0
       0       0       0       0       0       0       0       0       0       0
       0       0       0       0       0       0       0       0       0       0
       0       0       0       0       0       0       0       0       0       0
       0       0       0       0       0       0       0       0       0       0
       0       0       0       0       0       0       0       0       0       0
       0       0       0       0       0       0       0       0       0       0
       0       0       0       0       0       0       0       0       0       0
       0       0       0       0       0       0       0       0       0       0
       0       0       0       0       0       0       0       0       0       0
       0       0       0       0       0       0       0       0       0       0
       0       0       0       0       0       0       0       0       0       0
       0       0       0       0       0       0       0       0       0       0
       0       0       0       0       0       0       0       0       0       0
       0       0       0       0       0       0       0       0       0       0
       0       0       0       0       0       0       0       0       0       0
       0       0       0       0       0       0       0       0       0       0
       0       0       0       0       0       0       0       0       0       0
       0       0       0       0       0       0       0       0       0       0
       0       0       0       0       0       0       0       0       0       0
       0       0       0       0       0       0       0       0       0       0
       0       0       0       0       0       0       0       0       0       0
       0       0       0       0       0       0       0       0       0       0
       0       0       0       0       0       0       0       0       0       0
       0       0       0       0       0       0       0       0       0       0
       0       0       0       0       0       0       0       0       0       0
       0       0       0       0       0       0       0       0       0       0
       0       0       0       0       0       0       0       0       0       0
       0       0       0       0       0       0       0       0       0       0
       0       0       0       0       0       0       0       0       0       0
       0       0       0       0       0       0       0       0       0       0
       0       0       0       0       0       0       0       0       0       0
       0       0       0       0       0       0       0       0       0       0
       0       0       0       0       0       0       0       0       0       0
       0       0       0       0       0       0       0       0       0       0
       0       0       0       0       0       0       0       0       0       0
       0       0       0       0       0       0       0       0       0       0
       0       0       0       0       0       0       0       0       0       0
       0       0       0       0       0       0       0       0       0       0
       0       0       0       0       0       0       0       0       0       0
       0       0       0       0       0       0       0       0       0       0
       0       0       0       0       0       0       0       0       0       0
       0       0       0       0       0       0       0       0       0       0
       0       0       0       0       0       0       0       0       0       0
       0       0       0       0       0       0       0       0       0       0
       0       0       0       0       0       0       0       0       0       0
       0       0       0       0       0       0       0       0       0       0
       0       0       0       0       0       0       0       0       0       0
       0       0       0       0       0       0       0       0       0       0
       0       0       0       0       0       0       0       0       0       0
       0       0       0       0       0       0       0       0       0       0
       0       0       0       0       0       0       0       0       0       0
       0       0       0       0       0       0       0       0       0       0
       0       0       0       0       0       0       0       0       0       0
       0       0       0       0       0       0       0       0       0       0
       0       0       0       0       0       0       0       0       0       0
       0       0       0       0       0       0       0       0       0       0
       0       0       0       0       0       0       0       0       0       0
       0       0       0       0       0       0       0       0       0       0
       0       0       0       0       0       0       0       0       0       0
       0       0       0       0       0       0       0       0       0       0
       0       0       0       0       0       0       0       0       0       0
       0       0       0       0       0       0       0       0       0       0
       0       0       0       0       0       0       0       0       0       0
       0       0       0       0       0       0       0       0       0       0
       0       0       0       0       0       0       0       0       0       0
       0       0       0       0       0       0       0       0       0       0
       0       0       0       0       0       0       0       0       0       0
       0       0       0       0       0       0       0       0       0       0
       0       0       0       0       0       0       0       0       0       0
       0       0       0       0       0       0       0       0       0       0
       0       0       0       0       0       0       0       0       0       0
       0       0       0       0       0       0       0       0       0       0
       0       0       0       0       0       0       0       0       0       0
       0       0       0       0       0       0       0       0       0       0
       0       0       0       0       0       0       0       0       0       0
       0       0       0       0       0       0       0       0       0       0
       0       0       0       0       0       0       0       0       0       0
       0       0       0       0       0       0       0       0       0       0
       0       0       0       0       0       0       0       0       0       0
       0       0       0       0       0       0       0       0       0       0
       0       0       0       0       0       0       0       0       0       0
       0       0       0       0       0       0       0       0       0       0
       0       0       0       0       0       0       0       0       0       0
       0       0       0       0       0       0       0       0       0       0
       0       0       0       0       0       0       0       0       0       0
       0       0       0       0       0       0       0       0       0       0
       0       0       0       0       0       0       0       0       0       0
       0       0       0       0       0       0       0       0       0       0
       0       0       0       0       0       0       0       0       0       0
       0       0       0       0       0       0       0       0       0       0
       0       0       0       0       0       0       0       0       0       0
       0       0       0       0       0       0       0       0       0       0
       0       0       0       0       0       0       0       0       0       0
       0       0       0       0       0       0       0       0       0       0
       0       0       0       0       0       0       0       0       0       0
       0       0       0       0       0       0       0       0       0       0
       0       0       0       0       0       0       0       0       0       0
       0       0       0       0       0       0       0       0       0       0
       0       0       0       0       0       0       0       0       0       0
       0       0       0       0       0       0       0       0       0       0
       0       0       0       0       0       0       0       0       0       0
       0       0       0       0       0       0       0       0       0       0
       0       0       0       0       0       0       0       0       0       0
       0       0       0       0       0       0       0       0       0       0
       0       0       0       0       0       0       0       0       0       0
       0       0       0       0       0       0       0       0       0       0
       0       0       0       0       0       0       0       0       0       0
       0       0       0       0       0       0       0       0       0       0
       0       0       0       0       0       0       0       0       0       0
       0       0       0       0       0       0       0       0       0       0
       0       0       0       0       0       0       0       0       0       0
       0       0       0       0       0       0       0       0       0       0
       0       0       0       0       0       0       0       0       0       0
       0       0       0       0       0       0       0       0       0       0
       0       0       0       0       0       0       0       0       0       0
       0       0       0       0       0       0       0       0       0       0
       0       0       0       0       0       0       0       0       0       0
       0       0       0       0       0       0       0       0       0       0
       0       0       0       0       0       0       0       0       0       0
       0       0       0       0       0       0       0       0       0       0
       0       0       0       0       0       0       0       0       0       0
       0       0       0       0       0       0       0       0       0       0
       0       0       0       0       0       0       0       0       0       0
       0       0       0       0       0       0       0       0       0       0
       0       0       0       0       0       0       0       0       0       0
       0       0       0       0       0       0       0       0       0       0
       0       0       0       0       0       0       0       0       0       0
       0       0       0       0       0       0       0       0       0       0
       0       0       0       0       0       0       0       0       0       0
       0       0       0       0       0       0       0       0       0       0
       0       0       0       0       0       0       0       0       0       0
       0       0       0       0       0       0       0       0       0       0
       0       0       0       0       0       0       0       0       0       0
       0       0       0       0       0       0       0       0       0       0
       0       0       0       0       0       0       0       0       0       0
       0       0       0       0       0       0       0       0       0       0
       0       0       0       0       0       0       0       0       0       0
       0       0       0       0       0       0       0       0       0       0
       0       0       0       0       0       0       0       0       0       0
       0       0       0       0       0       0       0       0       0       0
       0       0       0       0       0       0       0       0       0       0
       0       0       0       0       0       0       0       0       0       0
       0       0       0       0       0       0       0       0       0       0
       0       0       0       0       0       0       0       0       0       0
       0       0       0       0       0       0       0       0       0       0
       0       0       0       0       0       0       0       0       0       0
       0       0       0       0       0       0       0       0       0       0
       0       0       0       0       0       0       0       0       0       0
       0       0       0       0       0       0       0       0       0       0
       0       0       0       0       0       0       0       0       0       0
       0       0       0       0       0       0       0       0       0       0
       0       0       0       0       0       0       0       0       0       0
       0       0       0       0       0       0       0       0       0       0
       0       0       0       0       0       0       0       0       0       0
       0       0       0       0       0       0       0       0       0       0
       0       0       0       0       0       0       0       0       0       0
       0       0       0       0       0       0       0       0       0       0
       0       0       0       0       0       0       0       0       0       0
       0       0       0       0       0       0       0       0       0       0
       0       0       0       0       0       0       0       0       0       0
       0       0       0       0       0       0       0       0       0       0
       0       0       0       0       0       0       0       0       0       0
       0       0       0       0       0       0       0       0       0       0
       0       0       0       0       0       0       0       0       0       0
       0       0       0       0       0       0       0       0       0       0
       0       0       0       0       0       0       0       0       0       0
       0       0       0       0       0       0       0       0       0       0
       0       0       0       0       0       0       0       0       0       0
       0       0       0       0       0       0       0       0       0       0
       0       0       0       0       0       0       0       0       0       0
       0       0       0       0       0       0       0       0       0       0
       0       0       0       0       0       0       0       0       0       0
       0       0       0       0       0       0       0       0       0       0
       0       0       0       0       0       0       0       0       0       0
       0       0       0       0       0       0       0       0       0       0
       0       0       0       0       0       0       0       0       0       0
       0       0       0       0       0       0       0       0       0       0
       0       0       0       0       0       0       0       0       0       0
       0       0       0       0       0       0       0       0       0       0
       0       0       0       0       0       0       0       0       0       0
       0       0       0       0       0       0       0       0       0       0
       0       0       0       0       0       0       0       0       0       0
       0       0       0       0       0       0       0       0       0       0
       0       0       0       0       0       0       0       0       0       0
       0       0       0       0       0       0       0       0       0       0
       0       0       0       0       0       0       0       0       0       0
       0       0       0       0       0       0       0       0       0       0
       0       0       0       0       0       0       0       0       0       0
       0       0       0       0       0       0       0       0       0       0
       0       0       0       0       0       0       0       0       0       0
       0       0       0       0       0       0       0       0       0       0
       0       0       0       0       0       0       0       0       0       0
       0       0       0       0       0       0       0       0       0       0
       0       0       0       0       0       0       0       0       0       0
       0       0       0       0       0       0       0       0       0       0
       0       0       0       0       0       0       0       0       0       0
       0       0       0       0       0       0       0       0       0       0
       0       0       0       0       0       0       0       0       0       0
       0       0       0       0       0       0       0       0       0       0
       0       0       0       0       0       0       0       0       0       0
       0       0       0       0       0       0       0       0       0       0
       0       0       0       0       0       0       0       0       0       0
       0       0       0       0       0       0       0       0       0       0
       0       0       0       0       0       0       0       0       0       0
       0       0       0       0       0       0       0       0       0       0
       0       0       0       0       0       0       0       0       0       0
       0       0       0       0       0       0       0       0       0       0
       0       0       0       0       0       0       0       0       0       0
       0       0       0       0       0       0       0       0       0       0
       0       0       0       0       0       0       0       0       0       0
       0       0       0       0       0       0       0       0       0       0
       0       0       0       0       0       0       0       0       0       0
       0       0       0       0       0       0       0       0       0       0
       0       0       0       0       0       0       0       0       0       0
       0       0       0       0       0       0       0       0       0       0
       0       0       0       0       0       0       0       0       0       0
       0       0       0       0       0       0       0       0       0       0
       0       0       0       0       0       0       0       0       0       0
       0       0       0       0       0       0       0       0       0       0
       0       0       0       0       0       0       0       0       0       0
       0       0       0       0       0       0       0       0       0       0
       0       0       0       0       0       0       0       0       0       0
       0       0       0       0       0       0       0       0       0       0
       0       0       0       0       0       0       0       0       0       0
       0       0       0       0       0       0       0       0       0       0
       0       0       0       0       0       0       0       0       0       0
       0       0       0       0       0       0       0       0       0       0
       0       0       0       0       0       0       0       0       0       0
       0       0       0       0       0       0       0       0       0       0
       0       0       0       0       0       0       0       0       0       0
       0       0       0       0       0       0       0       0       0       0
       0       0       0       0       0       0       0       0       0       0
       0       0       0       0       0       0       0       0       0       0
       0       0       0       0       0       0       0       0       0       0
       0       0       0       0       0       0       0       0       0       0
       0       0       0       0       0       0       0       0       0       0
       0       0       0       0       0       0       0       0       0       0
       0       0       0       0       0       0       0       0       0       0
       0       0       0       0       0       0       0       0       0       0
       0       0       0       0       0       0       0       0       0       0
       0       0       0       0       0       0       0       0       0       0
       0       0       0       0       0       0       0       0       0       0
       0       0       0       0       0       0       0       0       0       0
       0       0       0       0       0       0       0       0       0       0
       0       0       0       0       0       0       0       0       0       0
       0       0       0       0       0       0       0       0       0       0
       0       0       0       0       0       0       0       0       0       0
       0       0       0       0       0       0       0       0       0       0
       0       0       0       0       0       0       0       0       0       0
       0       0       0       0       0       0       0       0       0       0
       0       0       0       0       0       0       0       0       0       0
       0       0       0       0       0       0       0       0       0       0
       0       0       0       0       0       0       0       0       0       0
       0       0       0       0       0       0       0       0       0       0
       0       0       0       0       0       0       0       0       0       0
       0       0       0       0       0       0       0       0       0       0
       0       0       0       0       0       0       0       0       0       0
       0       0       0       0       0       0       0       0       0       0
       0       0       0       0       0       0       0       0       0       0
       0       0       0       0       0       0       0       0       0       0
       0       0       0       0       0       0       0       0       0       0
       0       0       0       0       0       0       0       0       0       0
       0       0       0       0       0       0       0       0       0       0
       0       0       0       0       0       0       0       0       0       0
       0       0       0       0       0       0       0       0       0       0
       0       0       0       0       0       0       0       0       0       0
       0       0       0       0       0       0       0       0       0       0
       0       0       0       0       0       0       0       0       0       0
       0       0       0       0       0       0       0       0       0       0
       0       0       0       0       0       0       0       0       0       0
       0       0       0       0       0       0       0       0       0       0
       0       0       0       0       0       0       0       0       0       0
       0       0       0       0       0       0       0       0       0       0
       0       0       0       0       0       0       0       0       0       0
       0       0       0       0       0       0       0       0       0       0
       0       0       0       0       0       0       0       0       0       0
       0       0       0       0       0       0       0       0       0       0
       0       0       0       0       0       0       0       0       0       0
       0       0       0       0       0       0       0       0       0       0
       0       0       0       0       0       0       0       0       0       0
       0       0       0       0       0       0       0       0       0       0
       0       0       0       0       0       0       0       0       0       0
       0       0       0       0       0       0       0       0       0       0
       0       0       0       0       0       0       0       0       0       0
       0       0       0       0       0       0       0       0       0       0
       0       0       0       0       0       0       0       0       0       0
       0       0       0       0       0       0       0       0       0       0
       0       0       0       0       0       0       0       0       0       0
       0       0       0       0       0       0       0       0       0       0
       0       0       0       0       0       0       0       0       0       0
       0       0       0       0       0       0       0       0       0       0
       0       0       0       0       0       0       0       0       0       0
       0       0       0       0       0       0       0       0       0       0
       0       0       0       0       0       0       0       0       0       0
       0       0       0       0       0       0       0       0       0       0
       0       0       0       0       0       0       0       0       0       0
       0       0       0       0       0       0       0       0       0       0
       0       0       0       0       0       0       0       0       0       0
       0       0       0       0       0       0       0       0       0       0
       0       0       0       0       0       0       0       0       0       0
       0       0       0       0       0       0       0       0       0       0
       0       0       0       0       0       0       0       0       0       0
       0       0       0       0       0       0       0       0       0       0
       0       0       0       0       0       0       0       0       0       0
       0       0       0       0       0       0       0       0       0       0
       0       0       0       0       0       0       0       0       0       0
       0       0       0       0       0       0       0       0       0       0
       0       0       0       0       0       0       0       0       0       0
       0       0       0       0       0       0       0       0       0       0
       0       0       0       0       0       0       0       0       0       0
       0       0       0       0       0       0       0       0       0       0
       0       0       0       0       0       0       0       0       0       0
       0       0       0       0       0       0       0       0       0       0
       0       0       0       0       0       0       0       0       0       0
       0       0       0       0       0       0       0       0       0       0
       0       0       0       0       0       0       0       0       0       0
       0       0       0       0       0       0       0       0       0       0
       0       0       0       0       0       0       0       0       0       0
       0       0       0       0       0       0       0       0       0       0
       0       0       0       0       0       0       0       0       0       0
       0       0       0       0       0       0       0       0       0       0
       0       0       0       0       0       0       0       0       0       0
       0       0       0       0       0       0       0       0       0       0
       0       0       0       0       0       0       0       0       0       0
       0       0       0       0       0       0       0       0       0       0
       0       0       0       0       0       0       0       0       0       0
       0       0       0       0       0       0       0       0       0       0
       0       0       0       0       0       0       0       0       0       0
       0       0       0       0       0       0       0       0       0       0
       0       0       0       0       0       0       0       0       0       0
       0       0       0       0       0       0       0       0       0       0
       0       0       0       0       0       0       0       0       0       0
       0       0       0       0       0       0       0       0       0       0
       0       0       0       0       0       0       0       0       0       0
       0       0       0       0       0       0       0       0       0       0
       0       0       0       0       0       0       0       0       0       0
       0       0       0       0       0       0       0       0       0       0
       0       0       0       0       0       0       0       0       0       0
       0       0       0       0       0       0       0       0       0       0
       0       0       0       0       0       0       0       0       0       0
       0       0       0       0       0       0       0       0       0       0
       0       0       0       0       0       0       0       0       0       0
       0       0       0       0       0       0       0       0       0       0
       0       0       0       0       0       0       0       0       0       0
       0       0       0       0       0       0       0       0       0       0
       0       0       0       0       0       0       0       0       0       0
       0       0       0       0       0       0       0       0       0       0
       0       0       0       0       0       0       0       0       0       0
       0       0       0       0       0       0       0       0       0       0
       0       0       0       0       0       0       0       0       0       0
       0       0       0       0       0       0       0       0       0       0
       0       0       0       0       0       0       0       0       0       0
       0       0       0       0       0       0       0       0       0       0
       0       0       0       0       0       0       0       0       0       0
       0       0       0       0       0       0       0       0       0       0
       0       0       0       0       0       0       0       0       0       0
       0       0       0       0       0       0       0       0       0       0
       0       0       0       0       0       0       0       0       0       0
       0       0       0       0       0       0       0       0       0       0
       0       0       0       0       0       0       0       0       0       0
       0       0       0       0       0       0       0       0       0       0
       0       0       0       0       0       0       0       0       0       0
       0       0       0       0       0       0       0       0       0       0
       0       0       0       0       0       0       0       0       0       0
       0       0       0       0       0       0       0       0       0       0
       0       0       0       0       0       0       0       0       0       0
       0       0       0       0       0       0       0       0       0       0
       0       0       0       0       0       0       0       0       0       0
       0       0       0       0       0       0       0       0       0       0
       0       0       0       0       0       0       0       0       0       0
       0       0       0       0       0       0       0       0       0       0
       0       0       0       0       0       0       0       0       0       0
       0       0       0       0       0       0       0       0       0       0
       0       0       0       0       0       0       0
%FLAG SOLVENT_POINTERS                                                          
%FORMAT(3I8)                                                                    
      37   13365       5
%FLAG ATOMS_PER_MOLECULE                                                        
%FORMAT(10I8)                                                                   
      26     556     556     556       3       3       3       3       3       3
       3       3       3       3       3       3       3       3       3       3
       3       3       3       3       3       3       3       3       3       3
       3       3       3       3       3       3       3       3       3       3
       3       3       3       3       3       3       3       3       3       3
       3       3       3       3       3       3       3       3       3       3
       3       3       3       3       3       3       3       3       3       3
       3       3       3       3       3       3       3       3       3       3
       3       3       3       3       3       3       3       3       3       3
       3       3       3       3       3       3       3       3       3       3
       3       3       3       3       3       3       3       3       3       3
       3       3       3       3       3       3       3       3       3       3
       3       3       3       3       3       3       3       3       3       3
       3       3       3       3       3       3       3       3       3       3
       3       3       3       3       3       3       3       3       3       3
       3       3       3       3       3       3       3       3       3       3
       3       3       3       3       3       3       3       3       3       3
       3       3       3       3       3       3       3       3       3       3
       3       3       3       3       3       3       3       3       3       3
       3       3       3       3       3       3       3       3       3       3
       3       3       3       3       3       3       3       3       3       3
       3       3       3       3       3       3       3       3       3       3
       3       3       3       3       3       3       3       3       3       3
       3       3       3       3       3       3       3       3       3       3
       3       3       3       3       3       3       3       3       3       3
       3       3       3       3       3       3       3       3       3       3
       3       3       3       3       3       3       3       3       3       3
       3       3       3       3       3       3       3       3       3       3
       3       3       3       3       3       3       3       3       3       3
       3       3       3       3       3       3       3       3       3       3
       3       3       3       3       3       3       3       3       3       3
       3       3       3       3       3       3       3       3       3       3
       3       3       3       3       3       3       3       3       3       3
       3       3       3       3       3       3       3       3       3       3
       3       3       3       3       3       3       3       3       3       3
       3       3       3       3       3       3       3       3       3       3
       3       3       3       3       3       3       3       3       3       3
       3       3       3       3       3       3       3       3       3       3
       3       3       3       3       3       3       3       3       3       3
       3       3       3       3       3       3       3       3       3       3
       3       3       3       3       3       3       3       3       3       3
       3       3       3       3       3       3       3       3       3       3
       3       3       3       3       3       3       3       3       3       3
       3       3       3       3       3       3       3       3       3       3
       3       3       3       3       3       3       3       3       3       3
       3       3       3       3       3       3       3       3       3       3
       3       3       3       3       3       3       3       3       3       3
       3       3       3       3       3       3       3       3       3       3
       3       3       3       3       3       3       3       3       3       3
       3       3       3       3       3       3       3       3       3       3
       3       3       3       3       3       3       3       3       3       3
       3       3       3       3       3       3       3       3       3       3
       3       3       3       3       3       3       3       3       3       3
       3       3       3       3       3       3       3       3       3       3
       3       3       3       3       3       3       3       3       3       3
       3       3       3       3       3       3       3       3       3       3
       3       3       3       3       3       3       3       3       3       3
       3       3       3       3       3       3       3       3       3       3
       3       3       3       3       3       3       3       3       3       3
       3       3       3       3       3       3       3       3       3       3
       3       3       3       3       3       3       3       3       3       3
       3       3       3       3       3       3       3       3       3       3
       3       3       3       3       3       3       3       3       3       3
       3       3       3       3       3       3       3       3       3       3
       3       3       3       3       3       3       3       3       3       3
       3       3       3       3       3       3       3       3       3       3
       3       3       3       3       3       3       3       3       3       3
       3       3       3       3       3       3       3       3       3       3
       3       3       3       3       3       3       3       3       3       3
       3       3       3       3       3       3       3       3       3       3
       3       3       3       3       3       3       3       3       3       3
       3       3       3       3       3       3       3       3       3       3
       3       3       3       3       3       3       3       3       3       3
       3       3       3       3       3       3       3       3       3       3
       3       3       3       3       3       3       3       3       3       3
       3       3       3       3       3       3       3       3       3       3
       3       3       3       3       3       3       3       3       3       3
       3       3       3       3       3       3       3       3       3       3
       3       3       3       3       3       3       3       3       3       3
       3       3       3       3       3       3       3       3       3       3
       3       3       3       3       3       3       3       3       3       3
       3       3       3       3       3       3       3       3       3       3
       3       3       3       3       3       3       3       3       3       3
       3       3       3       3       3       3       3       3       3       3
       3       3       3       3       3       3       3       3       3       3
       3       3       3       3       3       3       3       3       3       3
       3       3       3       3       3       3       3       3       3       3
       3       3       3       3       3       3       3       3       3       3
       3       3       3       3       3       3       3       3       3       3
       3       3       3       3       3       3       3       3       3       3
       3       3       3       3       3       3       3       3       3       3
       3       3       3       3       3       3       3       3       3       3
       3       3       3       3       3       3       3       3       3       3
       3       3       3       3       3       3       3       3       3       3
       3       3       3       3       3       3       3       3       3       3
       3       3       3       3       3       3       3       3       3       3
       3       3       3       3       3       3       3       3       3       3
       3       3       3       3       3       3       3       3       3       3
       3       3       3       3       3       3       3       3       3       3
       3       3       3       3       3       3       3       3       3       3
       3       3       3       3       3       3       3       3       3       3
       3       3       3       3       3       3       3       3       3       3
       3       3       3       3       3       3       3       3       3       3
       3       3       3       3       3       3       3       3       3       3
       3       3       3       3       3       3       3       3       3       3
       3       3       3       3       3       3       3       3       3       3
       3       3       3       3       3       3       3       3       3       3
       3       3       3       3       3       3       3       3       3       3
       3       3       3       3       3       3       3       3       3       3
       3       3       3       3       3       3       3       3       3       3
       3       3       3       3       3       3       3       3       3       3
       3       3       3       3       3       3       3       3       3       3
       3       3       3       3       3       3       3       3       3       3
       3       3       3       3       3       3       3       3       3       3
       3       3       3       3       3       3       3       3       3       3
       3       3       3       3       3       3       3       3       3       3
       3       3       3       3       3       3       3       3       3       3
       3       3       3       3       3       3       3       3       3       3
       3       3       3       3       3       3       3       3       3       3
       3       3       3       3       3       3       3       3       3       3
       3       3       3       3       3       3       3       3       3       3
       3       3       3       3       3       3       3       3       3       3
       3       3       3       3       3       3       3       3       3       3
       3       3       3       3       3       3       3       3       3       3
       3       3       3       3       3       3       3       3       3       3
       3       3       3       3       3       3       3       3       3       3
       3       3       3       3       3       3       3       3       3       3
       3       3       3       3       3       3       3       3       3       3
       3       3       3       3       3       3       3       3       3       3
       3       3       3       3       3       3       3       3       3       3
       3       3       3       3       3       3       3       3       3       3
       3       3       3       3       3       3       3       3       3       3
       3       3       3       3       3       3       3       3       3       3
       3       3       3       3       3       3       3       3       3       3
       3       3       3       3       3       3       3       3       3       3
       3       3       3       3       3       3       3       3       3       3
       3       3       3       3       3       3       3       3       3       3
       3       3       3       3       3       3       3       3       3       3
       3       3       3       3       3       3       3       3       3       3
       3       3       3       3       3       3       3       3       3       3
       3       3       3       3       3       3       3       3       3       3
       3       3       3       3       3       3       3       3       3       3
       3       3       3       3       3       3       3       3       3       3
       3       3       3       3       3       3       3       3       3       3
       3       3       3       3       3       3       3       3       3       3
       3       3       3       3       3       3       3       3       3       3
       3       3       3       3       3       3       3       3       3       3
       3       3       3       3       3       3       3       3       3       3
       3       3       3       3       3       3       3       3       3       3
       3       3       3       3       3       3       3       3       3       3
       3       3       3       3       3       3       3       3       3       3
       3       3       3       3       3       3       3       3       3       3
       3       3       3       3       3       3       3       3       3       3
       3       3       3       3       3       3       3       3       3       3
       3       3       3       3       3       3       3       3       3       3
       3       3       3       3       3       3       3       3       3       3
       3       3       3       3       3       3       3       3       3       3
       3       3       3       3       3       3       3       3       3       3
       3       3       3       3       3       3       3       3       3       3
       3       3       3       3       3       3       3       3       3       3
       3       3       3       3       3       3       3       3       3       3
       3       3       3       3       3       3       3       3       3       3
       3       3       3       3       3       3       3       3       3       3
       3       3       3       3       3       3       3       3       3       3
       3       3       3       3       3       3       3       3       3       3
       3       3       3       3       3       3       3       3       3       3
       3       3       3       3       3       3       3       3       3       3
       3       3       3       3       3       3       3       3       3       3
       3       3       3       3       3       3       3       3       3       3
       3       3       3       3       3       3       3       3       3       3
       3       3       3       3       3       3       3       3       3       3
       3       3       3       3       3       3       3       3       3       3
       3       3       3       3       3       3       3       3       3       3
       3       3       3       3       3       3       3       3       3       3
       3       3       3       3       3       3       3       3       3       3
       3       3       3       3       3       3       3       3       3       3
       3       3       3       3       3       3       3       3       3       3
       3       3       3       3       3       3       3       3       3       3
       3       3       3       3       3       3       3       3       3       3
       3       3       3       3       3       3       3       3       3       3
       3       3       3       3       3       3       3       3       3       3
       3       3       3       3       3       3       3       3       3       3
       3       3       3       3       3       3       3       3       3       3
       3       3       3       3       3       3       3       3       3       3
       3       3       3       3       3       3       3       3       3       3
       3       3       3       3       3       3       3       3       3       3
       3       3       3       3       3       3       3       3       3       3
       3       3       3       3       3       3       3       3       3       3
       3       3       3       3       3       3       3       3       3       3
       3       3       3       3       3       3       3       3       3       3
       3       3       3       3       3       3       3       3       3       3
       3       3       3       3       3       3       3       3       3       3
       3       3       3       3       3       3       3       3       3       3
       3       3       3       3       3       3       3       3       3       3
       3       3       3       3       3       3       3       3       3       3
       3       3       3       3       3       3       3       3       3       3
       3       3       3       3       3       3       3       3       3       3
       3       3       3       3       3       3       3       3       3       3
       3       3       3       3       3       3       3       3       3       3
       3       3       3       3       3       3       3       3       3       3
       3       3       3       3       3       3       3       3       3       3
       3       3       3       3       3       3       3       3       3       3
       3       3       3       3       3       3       3       3       3       3
       3       3       3       3       3       3       3       3       3       3
       3       3       3       3       3       3       3       3       3       3
       3       3       3       3       3       3       3       3       3       3
       3       3       3       3       3       3       3       3       3       3
       3       3       3       3       3       3       3       3       3       3
       3       3       3       3       3       3       3       3       3       3
       3       3       3       3       3       3       3       3       3       3
       3       3       3       3       3       3       3       3       3       3
       3       3       3       3       3       3       3       3       3       3
       3       3       3       3       3       3       3       3       3       3
       3       3       3       3       3       3       3       3       3       3
       3       3       3       3       3       3       3       3       3       3
       3       3       3       3       3       3       3       3       3       3
       3       3       3       3       3       3       3       3       3       3
       3       3       3       3       3       3       3       3       3       3
       3       3       3       3       3       3       3       3       3       3
       3       3       3       3       3       3       3       3       3       3
       3       3       3       3       3       3       3       3       3       3
       3       3       3       3       3       3       3       3       3       3
       3       3       3       3       3       3       3       3       3       3
       3       3       3       3       3       3       3       3       3       3
       3       3       3       3       3       3       3       3       3       3
       3       3       3       3       3       3       3       3       3       3
       3       3       3       3       3       3       3       3       3       3
       3       3       3       3       3       3       3       3       3       3
       3       3       3       3       3       3       3       3       3       3
       3       3       3       3       3       3       3       3       3       3
       3       3       3       3       3       3       3       3       3       3
       3       3       3       3       3       3       3       3       3       3
       3       3       3       3       3       3       3       3       3       3
       3       3       3       3       3       3       3       3       3       3
       3       3       3       3       3       3       3       3       3       3
       3       3       3       3       3       3       3       3       3       3
       3       3       3       3       3       3       3       3       3       3
       3       3       3       3       3       3       3       3       3       3
       3       3       3       3       3       3       3       3       3       3
       3       3       3       3       3       3       3       3       3       3
       3       3       3       3       3       3       3       3       3       3
       3       3       3       3       3       3       3       3       3       3
       3       3       3       3       3       3       3       3       3       3
       3       3       3       3       3       3       3       3       3       3
       3       3       3       3       3       3       3       3       3       3
       3       3       3       3       3       3       3       3       3       3
       3       3       3       3       3       3       3       3       3       3
       3       3       3       3       3       3       3       3       3       3
       3       3       3       3       3       3       3       3       3       3
       3       3       3       3       3       3       3       3       3       3
       3       3       3       3       3       3       3       3       3       3
       3       3       3       3       3       3       3       3       3       3
       3       3       3       3       3       3       3       3       3       3
       3       3       3       3       3       3       3       3       3       3
       3       3       3       3       3       3       3       3       3       3
       3       3       3       3       3       3       3       3       3       3
       3       3       3       3       3       3       3       3       3       3
       3       3       3       3       3       3       3       3       3       3
       3       3       3       3       3       3       3       3       3       3
       3       3       3       3       3       3       3       3       3       3
       3       3       3       3       3       3       3       3       3       3
       3       3       3       3       3       3       3       3       3       3
       3       3       3       3       3       3       3       3       3       3
       3       3       3       3       3       3       3       3       3       3
       3       3       3       3       3       3       3       3       3       3
       3       3       3       3       3       3       3       3       3       3
       3       3       3       3       3       3       3       3       3       3
       3       3       3       3       3       3       3       3       3       3
       3       3       3       3       3       3       3       3       3       3
       3       3       3       3       3       3       3       3       3       3
       3       3       3       3       3       3       3       3       3       3
       3       3       3       3       3       3       3       3       3       3
       3       3       3       3       3       3       3       3       3       3
       3       3       3       3       3       3       3       3       3       3
       3       3       3       3       3       3       3       3       3       3
       3       3       3       3       3       3       3       3       3       3
       3       3       3       3       3       3       3       3       3       3
       3       3       3       3       3       3       3       3       3       3
       3       3       3       3       3       3       3       3       3       3
       3       3       3       3       3       3       3       3       3       3
       3       3       3       3       3       3       3       3       3       3
       3       3       3       3       3       3       3       3       3       3
       3       3       3       3       3       3       3       3       3       3
       3       3       3       3       3       3       3       3       3       3
       3       3       3       3       3       3       3       3       3       3
       3       3       3       3       3       3       3       3       3       3
       3       3       3       3       3       3       3       3       3       3
       3       3       3       3       3       3       3       3       3       3
       3       3       3       3       3       3       3       3       3       3
       3       3       3       3       3       3       3       3       3       3
       3       3       3       3       3       3       3       3       3       3
       3       3       3       3       3       3       3       3       3       3
       3       3       3       3       3       3       3       3       3       3
       3       3       3       3       3       3       3       3       3       3
       3       3       3       3       3       3       3       3       3       3
       3       3       3       3       3       3       3       3       3       3
       3       3       3       3       3       3       3       3       3       3
       3       3       3       3       3       3       3       3       3       3
       3       3       3       3       3       3       3       3       3       3
       3       3       3       3       3       3       3       3       3       3
       3       3       3       3       3       3       3       3       3       3
       3       3       3       3       3       3       3       3       3       3
       3       3       3       3       3       3       3       3       3       3
       3       3       3       3       3       3       3       3       3       3
       3       3       3       3       3       3       3       3       3       3
       3       3       3       3       3       3       3       3       3       3
       3       3       3       3       3       3       3       3       3       3
       3       3       3       3       3       3       3       3       3       3
       3       3       3       3       3       3       3       3       3       3
       3       3       3       3       3       3       3       3       3       3
       3       3       3       3       3       3       3       3       3       3
       3       3       3       3       3       3       3       3       3       3
       3       3       3       3       3       3       3       3       3       3
       3       3       3       3       3       3       3       3       3       3
       3       3       3       3       3       3       3       3       3       3
       3       3       3       3       3       3       3       3       3       3
       3       3       3       3       3       3       3       3       3       3
       3       3       3       3       3       3       3       3       3       3
       3       3       3       3       3       3       3       3       3       3
       3       3       3       3       3       3       3       3       3       3
       3       3       3       3       3       3       3       3       3       3
       3       3       3       3       3       3       3       3       3       3
       3       3       3       3       3       3       3       3       3       3
       3       3       3       3       3       3       3       3       3       3
       3       3       3       3       3       3       3       3       3       3
       3       3       3       3       3       3       3       3       3       3
       3       3       3       3       3       3       3       3       3       3
       3       3       3       3       3       3       3       3       3       3
       3       3       3       3       3       3       3       3       3       3
       3       3       3       3       3       3       3       3       3       3
       3       3       3       3       3       3       3       3       3       3
       3       3       3       3       3       3       3       3       3       3
       3       3       3       3       3       3       3       3       3       3
       3       3       3       3       3       3       3       3       3       3
       3       3       3       3       3       3       3       3       3       3
       3       3       3       3       3       3       3       3       3       3
       3       3       3       3       3       3       3       3       3       3
       3       3       3       3       3       3       3       3       3       3
       3       3       3       3       3       3       3       3       3       3
       3       3       3       3       3       3       3       3       3       3
       3       3       3       3       3       3       3       3       3       3
       3       3       3       3       3       3       3       3       3       3
       3       3       3       3       3       3       3       3       3       3
       3       3       3       3       3       3       3       3       3       3
       3       3       3       3       3       3       3       3       3       3
       3       3       3       3       3       3       3       3       3       3
       3       3       3       3       3       3       3       3       3       3
       3       3       3       3       3       3       3       3       3       3
       3       3       3       3       3       3       3       3       3       3
       3       3       3       3       3       3       3       3       3       3
       3       3       3       3       3       3       3       3       3       3
       3       3       3       3       3       3       3       3       3       3
       3       3       3       3       3       3       3       3       3       3
       3       3       3       3       3       3       3       3       3       3
       3       3       3       3       3       3       3       3       3       3
       3       3       3       3       3       3       3       3       3       3
       3       3       3       3       3       3       3       3       3       3
       3       3       3       3       3       3       3       3       3       3
       3       3       3       3       3       3       3       3       3       3
       3       3       3       3       3       3       3       3       3       3
       3       3       3       3       3       3       3       3       3       3
       3       3       3       3       3       3       3       3       3       3
       3       3       3       3       3       3       3       3       3       3
       3       3       3       3       3       3       3       3       3       3
       3       3       3       3       3       3       3       3       3       3
       3       3       3       3       3       3       3       3       3       3
       3       3       3       3       3       3       3       3       3       3
       3       3       3       3       3       3       3       3       3       3
       3       3       3       3       3       3       3       3       3       3
       3       3       3       3       3       3       3       3       3       3
       3       3       3       3       3       3       3       3       3       3
       3       3       3       3       3       3       3       3       3       3
       3       3       3       3       3       3       3       3       3       3
       3       3       3       3       3       3       3       3       3       3
       3       3       3       3       3       3       3       3       3       3
       3       3       3       3       3       3       3       3       3       3
       3       3       3       3       3       3       3       3       3       3
       3       3       3       3       3       3       3       3       3       3
       3       3       3       3       3       3       3       3       3       3
       3       3       3       3       3       3       3       3       3       3
       3       3       3       3       3       3       3       3       3       3
       3       3       3       3       3       3       3       3       3       3
       3       3       3       3       3       3       3       3       3       3
       3       3       3       3       3       3       3       3       3       3
       3       3       3       3       3       3       3       3       3       3
       3       3       3       3       3       3       3       3       3       3
       3       3       3       3       3       3       3       3       3       3
       3       3       3       3       3       3       3       3       3       3
       3       3       3       3       3       3       3       3       3       3
       3       3       3       3       3       3       3       3       3       3
       3       3       3       3       3       3       3       3       3       3
       3       3       3       3       3       3       3       3       3       3
       3       3       3       3       3       3       3       3       3       3
       3       3       3       3       3       3       3       3       3       3
       3       3       3       3       3       3       3       3       3       3
       3       3       3       3       3       3       3       3       3       3
       3       3       3       3       3       3       3       3       3       3
       3       3       3       3       3       3       3       3       3       3
       3       3       3       3       3       3       3       3       3       3
       3       3       3       3       3       3       3       3       3       3
       3       3       3       3       3       3       3       3       3       3
       3       3       3       3       3       3       3       3       3       3
       3       3       3       3       3       3       3       3       3       3
       3       3       3       3       3       3       3       3       3       3
       3       3       3       3       3       3       3       3       3       3
       3       3       3       3       3       3       3       3       3       3
       3       3       3       3       3       3       3       3       3       3
       3       3       3       3       3       3       3       3       3       3
       3       3       3       3       3       3       3       3       3       3
       3       3       3       3       3       3       3       3       3       3
       3       3       3       3       3       3       3       3       3       3
       3       3       3       3       3       3       3       3       3       3
       3       3       3       3       3       3       3       3       3       3
       3       3       3       3       3       3       3       3       3       3
       3       3       3       3       3       3       3       3       3       3
       3       3       3       3       3       3       3       3       3       3
       3       3       3       3       3       3       3       3       3       3
       3       3       3       3       3       3       3       3       3       3
       3       3       3       3       3       3       3       3       3       3
       3       3       3       3       3       3       3       3       3       3
       3       3       3       3       3       3       3       3       3       3
       3       3       3       3       3       3       3       3       3       3
       3       3       3       3       3       3       3       3       3       3
       3       3       3       3       3       3       3       3       3       3
       3       3       3       3       3       3       3       3       3       3
       3       3       3       3       3       3       3       3       3       3
       3       3       3       3       3       3       3       3       3       3
       3       3       3       3       3       3       3       3       3       3
       3       3       3       3       3       3       3       3       3       3
       3       3       3       3       3       3       3       3       3       3
       3       3       3       3       3       3       3       3       3       3
       3       3       3       3       3       3       3       3       3       3
       3       3       3       3       3       3       3       3       3       3
       3       3       3       3       3       3       3       3       3       3
       3       3       3       3       3       3       3       3       3       3
       3       3       3       3       3       3       3       3       3       3
       3       3       3       3       3       3       3       3       3       3
       3       3       3       3       3       3       3       3       3       3
       3       3       3       3       3       3       3       3       3       3
       3       3       3       3       3       3       3       3       3       3
       3       3       3       3       3       3       3       3       3       3
       3       3       3       3       3       3       3       3       3       3
       3       3       3       3       3       3       3       3       3       3
       3       3       3       3       3       3       3       3       3       3
       3       3       3       3       3       3       3       3       3       3
       3       3       3       3       3       3       3       3       3       3
       3       3       3       3       3       3       3       3       3       3
       3       3       3       3       3       3       3       3       3       3
       3       3       3       3       3       3       3       3       3       3
       3       3       3       3       3       3       3       3       3       3
       3       3       3       3       3       3       3       3       3       3
       3       3       3       3       3       3       3       3       3       3
       3       3       3       3       3       3       3       3       3       3
       3       3       3       3       3       3       3       3       3       3
       3       3       3       3       3       3       3       3       3       3
       3       3       3       3       3       3       3       3       3       3
       3       3       3       3       3       3       3       3       3       3
       3       3       3       3       3       3       3       3       3       3
       3       3       3       3       3       3       3       3       3       3
       3       3       3       3       3       3       3       3       3       3
       3       3       3       3       3       3       3       3       3       3
       3       3       3       3       3       3       3       3       3       3
       3       3       3       3       3       3       3       3       3       3
       3       3       3       3       3       3       3       3       3       3
       3       3       3       3       3       3       3       3       3       3
       3       3       3       3       3       3       3       3       3       3
       3       3       3       3       3       3       3       3       3       3
       3       3       3       3       3       3       3       3       3       3
       3       3       3       3       3       3       3       3       3       3
       3       3       3       3       3       3       3       3       3       3
       3       3       3       3       3       3       3       3       3       3
       3       3       3       3       3       3       3       3       3       3
       3       3       3       3       3       3       3       3       3       3
       3       3       3       3       3       3       3       3       3       3
       3       3       3       3       3       3       3       3       3       3
       3       3       3       3       3       3       3       3       3       3
       3       3       3       3       3       3       3       3       3       3
       3       3       3       3       3       3       3       3       3       3
       3       3       3       3       3       3       3       3       3       3
       3       3       3       3       3       3       3       3       3       3
       3       3       3       3       3       3       3       3       3       3
       3       3       3       3       3       3       3       3       3       3
       3       3       3       3       3       3       3       3       3       3
       3       3       3       3       3       3       3       3       3       3
       3       3       3       3       3       3       3       3       3       3
       3       3       3       3       3       3       3       3       3       3
       3       3       3       3       3       3       3       3       3       3
       3       3       3       3       3       3       3       3       3       3
       3       3       3       3       3       3       3       3       3       3
       3       3       3       3       3       3       3       3       3       3
       3       3       3       3       3       3       3       3       3       3
       3       3       3       3       3       3       3       3       3       3
       3       3       3       3       3       3       3       3       3       3
       3       3       3       3       3       3       3       3       3       3
       3       3       3       3       3       3       3       3       3       3
       3       3       3       3       3       3       3       3       3       3
       3       3       3       3       3       3       3       3       3       3
       3       3       3       3       3       3       3       3       3       3
       3       3       3       3       3       3       3       3       3       3
       3       3       3       3       3       3       3       3       3       3
       3       3       3       3       3       3       3       3       3       3
       3       3       3       3       3       3       3       3       3       3
       3       3       3       3       3       3       3       3       3       3
       3       3       3       3       3       3       3       3       3       3
       3       3       3       3       3       3       3       3       3       3
       3       3       3       3       3       3       3       3       3       3
       3       3       3       3       3       3       3       3       3       3
       3       3       3       3       3       3       3       3       3       3
       3       3       3       3       3       3       3       3       3       3
       3       3       3       3       3       3       3       3       3       3
       3       3       3       3       3       3       3       3       3       3
       3       3       3       3       3       3       3       3       3       3
       3       3       3       3       3       3       3       3       3       3
       3       3       3       3       3       3       3       3       3       3
       3       3       3       3       3       3       3       3       3       3
       3       3       3       3       3       3       3       3       3       3
       3       3       3       3       3       3       3       3       3       3
       3       3       3       3       3       3       3       3       3       3
       3       3       3       3       3       3       3       3       3       3
       3       3       3       3       3       3       3       3       3       3
       3       3       3       3       3       3       3       3       3       3
       3       3       3       3       3       3       3       3       3       3
       3       3       3       3       3       3       3       3       3       3
       3       3       3       3       3       3       3       3       3       3
       3       3       3       3       3       3       3       3       3       3
       3       3       3       3       3       3       3       3       3       3
       3       3       3       3       3       3       3       3       3       3
       3       3       3       3       3       3       3       3       3       3
       3       3       3       3       3       3       3       3       3       3
       3       3       3       3       3       3       3       3       3       3
       3       3       3       3       3       3       3       3       3       3
       3       3       3       3       3       3       3       3       3       3
       3       3       3       3       3       3       3       3       3       3
       3       3       3       3       3       3       3       3       3       3
       3       3       3       3       3       3       3       3       3       3
       3       3       3       3       3       3       3       3       3       3
       3       3       3       3       3       3       3       3       3       3
       3       3       3       3       3       3       3       3       3       3
       3       3       3       3       3       3       3       3       3       3
       3       3       3       3       3       3       3       3       3       3
       3       3       3       3       3       3       3       3       3       3
       3       3       3       3       3       3       3       3       3       3
       3       3       3       3       3       3       3       3       3       3
       3       3       3       3       3       3       3       3       3       3
       3       3       3       3       3       3       3       3       3       3
       3       3       3       3       3       3       3       3       3       3
       3       3       3       3       3       3       3       3       3       3
       3       3       3       3       3       3       3       3       3       3
       3       3       3       3       3       3       3       3       3       3
       3       3       3       3       3       3       3       3       3       3
       3       3       3       3       3       3       3       3       3       3
       3       3       3       3       3       3       3       3       3       3
       3       3       3       3       3       3       3       3       3       3
       3       3       3       3       3       3       3       3       3       3
       3       3       3       3       3       3       3       3       3       3
       3       3       3       3       3       3       3       3       3       3
       3       3       3       3       3       3       3       3       3       3
       3       3       3       3       3       3       3       3       3       3
       3       3       3       3       3       3       3       3       3       3
       3       3       3       3       3       3       3       3       3       3
       3       3       3       3       3       3       3       3       3       3
       3       3       3       3       3       3       3       3       3       3
       3       3       3       3       3       3       3       3       3       3
       3       3       3       3       3       3       3       3       3       3
       3       3       3       3       3       3       3       3       3       3
       3       3       3       3       3       3       3       3       3       3
       3       3       3       3       3       3       3       3       3       3
       3       3       3       3       3       3       3       3       3       3
       3       3       3       3       3       3       3       3       3       3
       3       3       3       3       3       3       3       3       3       3
       3       3       3       3       3       3       3       3       3       3
       3       3       3       3       3       3       3       3       3       3
       3       3       3       3       3       3       3       3       3       3
       3       3       3       3       3       3       3       3       3       3
       3       3       3       3       3       3       3       3       3       3
       3       3       3       3       3       3       3       3       3       3
       3       3       3       3       3       3       3       3       3       3
       3       3       3       3       3       3       3       3       3       3
       3       3       3       3       3       3       3       3       3       3
       3       3       3       3       3       3       3       3       3       3
       3       3       3       3       3       3       3       3       3       3
       3       3       3       3       3       3       3       3       3       3
       3       3       3       3       3       3       3       3       3       3
       3       3       3       3       3       3       3       3       3       3
       3       3       3       3       3       3       3       3       3       3
       3       3       3       3       3       3       3       3       3       3
       3       3       3       3       3       3       3       3       3       3
       3       3       3       3       3       3       3       3       3       3
       3       3       3       3       3       3       3       3       3       3
       3       3       3       3       3       3       3       3       3       3
       3       3       3       3       3       3       3       3       3       3
       3       3       3       3       3       3       3       3       3       3
       3       3       3       3       3       3       3       3       3       3
       3       3       3       3       3       3       3       3       3       3
       3       3       3       3       3       3       3       3       3       3
       3       3       3       3       3       3       3       3       3       3
       3       3       3       3       3       3       3       3       3       3
       3       3       3       3       3       3       3       3       3       3
       3       3       3       3       3       3       3       3       3       3
       3       3       3       3       3       3       3       3       3       3
       3       3       3       3       3       3       3       3       3       3
       3       3       3       3       3       3       3       3       3       3
       3       3       3       3       3       3       3       3       3       3
       3       3       3       3       3       3       3       3       3       3
       3       3       3       3       3       3       3       3       3       3
       3       3       3       3       3       3       3       3       3       3
       3       3       3       3       3       3       3       3       3       3
       3       3       3       3       3       3       3       3       3       3
       3       3       3       3       3       3       3       3       3       3
       3       3       3       3       3       3       3       3       3       3
       3       3       3       3       3       3       3       3       3       3
       3       3       3       3       3       3       3       3       3       3
       3       3       3       3       3       3       3       3       3       3
       3       3       3       3       3       3       3       3       3       3
       3       3       3       3       3       3       3       3       3       3
       3       3       3       3       3       3       3       3       3       3
       3       3       3       3       3       3       3       3       3       3
       3       3       3       3       3       3       3       3       3       3
       3       3       3       3       3       3       3       3       3       3
       3       3       3       3       3       3       3       3       3       3
       3       3       3       3       3       3       3       3       3       3
       3       3       3       3       3       3       3       3       3       3
       3       3       3       3       3       3       3       3       3       3
       3       3       3       3       3       3       3       3       3       3
       3       3       3       3       3       3       3       3       3       3
       3       3       3       3       3       3       3       3       3       3
       3       3       3       3       3       3       3       3       3       3
       3       3       3       3       3       3       3       3       3       3
       3       3       3       3       3       3       3       3       3       3
       3       3       3       3       3       3       3       3       3       3
       3       3       3       3       3       3       3       3       3       3
       3       3       3       3       3       3       3       3       3       3
       3       3       3       3       3       3       3       3       3       3
       3       3       3       3       3       3       3       3       3       3
       3       3       3       3       3       3       3       3       3       3
       3       3       3       3       3       3       3       3       3       3
       3       3       3       3       3       3       3       3       3       3
       3       3       3       3       3       3       3       3       3       3
       3       3       3       3       3       3       3       3       3       3
       3       3       3       3       3       3       3       3       3       3
       3       3       3       3       3       3       3       3       3       3
       3       3       3       3       3       3       3       3       3       3
       3       3       3       3       3       3       3       3       3       3
       3       3       3       3       3       3       3       3       3       3
       3       3       3       3       3       3       3       3       3       3
       3       3       3       3       3       3       3       3       3       3
       3       3       3       3       3       3       3       3       3       3
       3       3       3       3       3       3       3       3       3       3
       3       3       3       3       3       3       3       3       3       3
       3       3       3       3       3       3       3       3       3       3
       3       3       3       3       3       3       3       3       3       3
       3       3       3       3       3       3       3       3       3       3
       3       3       3       3       3       3       3       3       3       3
       3       3       3       3       3       3       3       3       3       3
       3       3       3       3       3       3       3       3       3       3
       3       3       3       3       3       3       3       3       3       3
       3       3       3       3       3       3       3       3       3       3
       3       3       3       3       3       3       3       3       3       3
       3       3       3       3       3       3       3       3       3       3
       3       3       3       3       3       3       3       3       3       3
       3       3       3       3       3       3       3       3       3       3
       3       3       3       3       3       3       3       3       3       3
       3       3       3       3       3       3       3       3       3       3
       3       3       3       3       3       3       3       3       3       3
       3       3       3       3       3       3       3       3       3       3
       3       3       3       3       3       3       3       3       3       3
       3       3       3       3       3       3       3       3       3       3
       3       3       3       3       3       3       3       3       3       3
       3       3       3       3       3       3       3       3       3       3
       3       3       3       3       3       3       3       3       3       3
       3       3       3       3       3       3       3       3       3       3
       3       3       3       3       3       3       3       3       3       3
       3       3       3       3       3       3       3       3       3       3
       3       3       3       3       3       3       3       3       3       3
       3       3       3       3       3       3       3       3       3       3
       3       3       3       3       3       3       3       3       3       3
       3       3       3       3       3       3       3       3       3       3
       3       3       3       3       3       3       3       3       3       3
       3       3       3       3       3       3       3       3       3       3
       3       3       3       3       3       3       3       3       3       3
       3       3       3       3       3       3       3       3       3       3
       3       3       3       3       3       3       3       3       3       3
       3       3       3       3       3       3       3       3       3       3
       3       3       3       3       3       3       3       3       3       3
       3       3       3       3       3       3       3       3       3       3
       3       3       3       3       3       3       3       3       3       3
       3       3       3       3       3       3       3       3       3       3
       3       3       3       3       3       3       3       3       3       3
       3       3       3       3       3       3       3       3       3       3
       3       3       3       3       3       3       3       3       3       3
       3       3       3       3       3       3       3       3       3       3
       3       3       3       3       3       3       3       3       3       3
       3       3       3       3       3       3       3       3       3       3
       3       3       3       3       3       3       3       3       3       3
       3       3       3       3       3       3       3       3       3       3
       3       3       3       3       3       3       3       3       3       3
       3       3       3       3       3       3       3       3       3       3
       3       3       3       3       3       3       3       3       3       3
       3       3       3       3       3       3       3       3       3       3
       3       3       3       3       3       3       3       3       3       3
       3       3       3       3       3       3       3       3       3       3
       3       3       3       3       3       3       3       3       3       3
       3       3       3       3       3       3       3       3       3       3
       3       3       3       3       3       3       3       3       3       3
       3       3       3       3       3       3       3       3       3       3
       3       3       3       3       3       3       3       3       3       3
       3       3       3       3       3       3       3       3       3       3
       3       3       3       3       3       3       3       3       3       3
       3       3       3       3       3       3       3       3       3       3
       3       3       3       3       3       3       3       3       3       3
       3       3       3       3       3       3       3       3       3       3
       3       3       3       3       3       3       3       3       3       3
       3       3       3       3       3       3       3       3       3       3
       3       3       3       3       3       3       3       3       3       3
       3       3       3       3       3       3       3       3       3       3
       3       3       3       3       3       3       3       3       3       3
       3       3       3       3       3       3       3       3       3       3
       3       3       3       3       3       3       3       3       3       3
       3       3       3       3       3       3       3       3       3       3
       3       3       3       3       3       3       3       3       3       3
       3       3       3       3       3       3       3       3       3       3
       3       3       3       3       3       3       3       3       3       3
       3       3       3       3       3       3       3       3       3       3
       3       3       3       3       3       3       3       3       3       3
       3       3       3       3       3       3       3       3       3       3
       3       3       3       3       3       3       3       3       3       3
       3       3       3       3       3       3       3       3       3       3
       3       3       3       3       3       3       3       3       3       3
       3       3       3       3       3       3       3       3       3       3
       3       3       3       3       3       3       3       3       3       3
       3       3       3       3       3       3       3       3       3       3
       3       3       3       3       3       3       3       3       3       3
       3       3       3       3       3       3       3       3       3       3
       3       3       3       3       3       3       3       3       3       3
       3       3       3       3       3       3       3       3       3       3
       3       3       3       3       3       3       3       3       3       3
       3       3       3       3       3       3       3       3       3       3
       3       3       3       3       3       3       3       3       3       3
       3       3       3       3       3       3       3       3       3       3
       3       3       3       3       3       3       3       3       3       3
       3       3       3       3       3       3       3       3       3       3
       3       3       3       3       3       3       3       3       3       3
       3       3       3       3       3       3       3       3       3       3
       3       3       3       3       3       3       3       3       3       3
       3       3       3       3       3       3       3       3       3       3
       3       3       3       3       3       3       3       3       3       3
       3       3       3       3       3       3       3       3       3       3
       3       3       3       3       3       3       3       3       3       3
       3       3       3       3       3       3       3       3       3       3
       3       3       3       3       3       3       3       3       3       3
       3       3       3       3       3       3       3       3       3       3
       3       3       3       3       3       3       3       3       3       3
       3       3       3       3       3       3       3       3       3       3
       3       3       3       3       3       3       3       3       3       3
       3       3       3       3       3       3       3       3       3       3
       3       3       3       3       3       3       3       3       3       3
       3       3       3       3       3       3       3       3       3       3
       3       3       3       3       3       3       3       3       3       3
       3       3       3       3       3       3       3       3       3       3
       3       3       3       3       3       3       3       3       3       3
       3       3       3       3       3       3       3       3       3       3
       3       3       3       3       3       3       3       3       3       3
       3       3       3       3       3       3       3       3       3       3
       3       3       3       3       3       3       3       3       3       3
       3       3       3       3       3       3       3       3       3       3
       3       3       3       3       3       3       3       3       3       3
       3       3       3       3       3       3       3       3       3       3
       3       3       3       3       3       3       3       3       3       3
       3       3       3       3       3       3       3       3       3       3
       3       3       3       3       3       3       3       3       3       3
       3       3       3       3       3       3       3       3       3       3
       3       3       3       3       3       3       3       3       3       3
       3       3       3       3       3       3       3       3       3       3
       3       3       3       3       3       3       3       3       3       3
       3       3       3       3       3       3       3       3       3       3
       3       3       3       3       3       3       3       3       3       3
       3       3       3       3       3       3       3       3       3       3
       3       3       3       3       3       3       3       3       3       3
       3       3       3       3       3       3       3       3       3       3
       3       3       3       3       3       3       3       3       3       3
       3       3       3       3       3       3       3       3       3       3
       3       3       3       3       3       3       3       3       3       3
       3       3       3       3       3       3       3       3       3       3
       3       3       3       3       3       3       3       3       3       3
       3       3       3       3       3       3       3       3       3       3
       3       3       3       3       3       3       3       3       3       3
       3       3       3       3       3       3       3       3       3       3
       3       3       3       3       3       3       3       3       3       3
       3       3       3       3       3       3       3       3       3       3
       3       3       3       3       3       3       3       3       3       3
       3       3       3       3       3       3       3       3       3       3
       3       3       3       3       3       3       3       3       3       3
       3       3       3       3       3       3       3       3       3       3
       3       3       3       3       3       3       3       3       3       3
       3       3       3       3       3       3       3       3       3       3
       3       3       3       3       3       3       3       3       3       3
       3       3       3       3       3       3       3       3       3       3
       3       3       3       3       3       3       3       3       3       3
       3       3       3       3       3       3       3       3       3       3
       3       3       3       3       3       3       3       3       3       3
       3       3       3       3       3       3       3       3       3       3
       3       3       3       3       3       3       3       3       3       3
       3       3       3       3       3       3       3       3       3       3
       3       3       3       3       3       3       3       3       3       3
       3       3       3       3       3       3       3       3       3       3
       3       3       3       3       3       3       3       3       3       3
       3       3       3       3       3       3       3       3       3       3
       3       3       3       3       3       3       3       3       3       3
       3       3       3       3       3       3       3       3       3       3
       3       3       3       3       3       3       3       3       3       3
       3       3       3       3       3       3       3       3       3       3
       3       3       3       3       3       3       3       3       3       3
       3       3       3       3       3       3       3       3       3       3
       3       3       3       3       3       3       3       3       3       3
       3       3       3       3       3       3       3       3       3       3
       3       3       3       3       3       3       3       3       3       3
       3       3       3       3       3       3       3       3       3       3
       3       3       3       3       3       3       3       3       3       3
       3       3       3       3       3       3       3       3       3       3
       3       3       3       3       3       3       3       3       3       3
       3       3       3       3       3       3       3       3       3       3
       3       3       3       3       3       3       3       3       3       3
       3       3       3       3       3       3       3       3       3       3
       3       3       3       3       3       3       3       3       3       3
       3       3       3       3       3       3       3       3       3       3
       3       3       3       3       3       3       3       3       3       3
       3       3       3       3       3       3       3       3       3       3
       3       3       3       3       3       3       3       3       3       3
       3       3       3       3       3       3       3       3       3       3
       3       3       3       3       3       3       3       3       3       3
       3       3       3       3       3       3       3       3       3       3
       3       3       3       3       3       3       3       3       3       3
       3       3       3       3       3       3       3       3       3       3
       3       3       3       3       3       3       3       3       3       3
       3       3       3       3       3       3       3       3       3       3
       3       3       3       3       3       3       3       3       3       3
       3       3       3       3       3       3       3       3       3       3
       3       3       3       3       3       3       3       3       3       3
       3       3       3       3       3       3       3       3       3       3
       3       3       3       3       3       3       3       3       3       3
       3       3       3       3       3       3       3       3       3       3
       3       3       3       3       3       3       3       3       3       3
       3       3       3       3       3       3       3       3       3       3
       3       3       3       3       3       3       3       3       3       3
       3       3       3       3       3       3       3       3       3       3
       3       3       3       3       3       3       3       3       3       3
       3       3       3       3       3       3       3       3       3       3
       3       3       3       3       3       3       3       3       3       3
       3       3       3       3       3       3       3       3       3       3
       3       3       3       3       3       3       3       3       3       3
       3       3       3       3       3       3       3       3       3       3
       3       3       3       3       3       3       3       3       3       3
       3       3       3       3       3       3       3       3       3       3
       3       3       3       3       3       3       3       3       3       3
       3       3       3       3       3       3       3       3       3       3
       3       3       3       3       3       3       3       3       3       3
       3       3       3       3       3       3       3       3       3       3
       3       3       3       3       3       3       3       3       3       3
       3       3       3       3       3       3       3       3       3       3
       3       3       3       3       3       3       3       3       3       3
       3       3       3       3       3       3       3       3       3       3
       3       3       3       3       3       3       3       3       3       3
       3       3       3       3       3       3       3       3       3       3
       3       3       3       3       3       3       3       3       3       3
       3       3       3       3       3       3       3       3       3       3
       3       3       3       3       3       3       3       3       3       3
       3       3       3       3       3       3       3       3       3       3
       3       3       3       3       3       3       3       3       3       3
       3       3       3       3       3       3       3       3       3       3
       3       3       3       3       3       3       3       3       3       3
       3       3       3       3       3       3       3       3       3       3
       3       3       3       3       3       3       3       3       3       3
       3       3       3       3       3       3       3       3       3       3
       3       3       3       3       3       3       3       3       3       3
       3       3       3       3       3       3       3       3       3       3
       3       3       3       3       3       3       3       3       3       3
       3       3       3       3       3       3       3       3       3       3
       3       3       3       3       3       3       3       3       3       3
       3       3       3       3       3       3       3       3       3       3
       3       3       3       3       3       3       3       3       3       3
       3       3       3       3       3       3       3       3       3       3
       3       3       3       3       3       3       3       3       3       3
       3       3       3       3       3       3       3       3       3       3
       3       3       3       3       3       3       3       3       3       3
       3       3       3       3       3       3       3       3       3       3
       3       3       3       3       3       3       3       3       3       3
       3       3       3       3       3       3       3       3       3       3
       3       3       3       3       3       3       3       3       3       3
       3       3       3       3       3       3       3       3       3       3
       3       3       3       3       3       3       3       3       3       3
       3       3       3       3       3       3       3       3       3       3
       3       3       3       3       3       3       3       3       3       3
       3       3       3       3       3       3       3       3       3       3
       3       3       3       3       3       3       3       3       3       3
       3       3       3       3       3       3       3       3       3       3
       3       3       3       3       3       3       3       3       3       3
       3       3       3       3       3       3       3       3       3       3
       3       3       3       3       3       3       3       3       3       3
       3       3       3       3       3       3       3       3       3       3
       3       3       3       3       3       3       3       3       3       3
       3       3       3       3       3       3       3       3       3       3
       3       3       3       3       3       3       3       3       3       3
       3       3       3       3       3       3       3       3       3       3
       3       3       3       3       3       3       3       3       3       3
       3       3       3       3       3       3       3       3       3       3
       3       3       3       3       3       3       3       3       3       3
       3       3       3       3       3       3       3       3       3       3
       3       3       3       3       3       3       3       3       3       3
       3       3       3       3       3       3       3       3       3       3
       3       3       3       3       3       3       3       3       3       3
       3       3       3       3       3       3       3       3       3       3
       3       3       3       3       3       3       3       3       3       3
       3       3       3       3       3       3       3       3       3       3
       3       3       3       3       3       3       3       3       3       3
       3       3       3       3       3       3       3       3       3       3
       3       3       3       3       3       3       3       3       3       3
       3       3       3       3       3       3       3       3       3       3
       3       3       3       3       3       3       3       3       3       3
       3       3       3       3       3       3       3       3       3       3
       3       3       3       3       3       3       3       3       3       3
       3       3       3       3       3       3       3       3       3       3
       3       3       3       3       3       3       3       3       3       3
       3       3       3       3       3       3       3       3       3       3
       3       3       3       3       3       3       3       3       3       3
       3       3       3       3       3       3       3       3       3       3
       3       3       3       3       3       3       3       3       3       3
       3       3       3       3       3       3       3       3       3       3
       3       3       3       3       3       3       3       3       3       3
       3       3       3       3       3       3       3       3       3       3
       3       3       3       3       3       3       3       3       3       3
       3       3       3       3       3       3       3       3       3       3
       3       3       3       3       3       3       3       3       3       3
       3       3       3       3       3       3       3       3       3       3
       3       3       3       3       3       3       3       3       3       3
       3       3       3       3       3       3       3       3       3       3
       3       3       3       3       3       3       3       3       3       3
       3       3       3       3       3       3       3       3       3       3
       3       3       3       3       3       3       3       3       3       3
       3       3       3       3       3       3       3       3       3       3
       3       3       3       3       3       3       3       3       3       3
       3       3       3       3       3       3       3       3       3       3
       3       3       3       3       3       3       3       3       3       3
       3       3       3       3       3       3       3       3       3       3
       3       3       3       3       3       3       3       3       3       3
       3       3       3       3       3       3       3       3       3       3
       3       3       3       3       3       3       3       3       3       3
       3       3       3       3       3       3       3       3       3       3
       3       3       3       3       3       3       3       3       3       3
       3       3       3       3       3       3       3       3       3       3
       3       3       3       3       3       3       3       3       3       3
       3       3       3       3       3       3       3       3       3       3
       3       3       3       3       3       3       3       3       3       3
       3       3       3       3       3       3       3       3       3       3
       3       3       3       3       3       3       3       3       3       3
       3       3       3       3       3       3       3       3       3       3
       3       3       3       3       3       3       3       3       3       3
       3       3       3       3       3       3       3       3       3       3
       3       3       3       3       3       3       3       3       3       3
       3       3       3       3       3       3       3       3       3       3
       3       3       3       3       3       3       3       3       3       3
       3       3       3       3       3       3       3       3       3       3
       3       3       3       3       3       3       3       3       3       3
       3       3       3       3       3       3       3       3       3       3
       3       3       3       3       3       3       3       3       3       3
       3       3       3       3       3       3       3       3       3       3
       3       3       3       3       3       3       3       3       3       3
       3       3       3       3       3       3       3       3       3       3
       3       3       3       3       3       3       3       3       3       3
       3       3       3       3       3       3       3       3       3       3
       3       3       3       3       3       3       3       3       3       3
       3       3       3       3       3       3       3       3       3       3
       3       3       3       3       3       3       3       3       3       3
       3       3       3       3       3       3       3       3       3       3
       3       3       3       3       3       3       3       3       3       3
       3       3       3       3       3       3       3       3       3       3
       3       3       3       3       3       3       3       3       3       3
       3       3       3       3       3       3       3       3       3       3
       3       3       3       3       3       3       3       3       3       3
       3       3       3       3       3       3       3       3       3       3
       3       3       3       3       3       3       3       3       3       3
       3       3       3       3       3       3       3       3       3       3
       3       3       3       3       3       3       3       3       3       3
       3       3       3       3       3       3       3       3       3       3
       3       3       3       3       3       3       3       3       3       3
       3       3       3       3       3       3       3       3       3       3
       3       3       3       3       3       3       3       3       3       3
       3       3       3       3       3       3       3       3       3       3
       3       3       3       3       3       3       3       3       3       3
       3       3       3       3       3       3       3       3       3       3
       3       3       3       3       3       3       3       3       3       3
       3       3       3       3       3       3       3       3       3       3
       3       3       3       3       3       3       3       3       3       3
       3       3       3       3       3       3       3       3       3       3
       3       3       3       3       3       3       3       3       3       3
       3       3       3       3       3       3       3       3       3       3
       3       3       3       3       3       3       3       3       3       3
       3       3       3       3       3       3       3       3       3       3
       3       3       3       3       3       3       3       3       3       3
       3       3       3       3       3       3       3       3       3       3
       3       3       3       3       3       3       3       3       3       3
       3       3       3       3       3       3       3       3       3       3
       3       3       3       3       3       3       3       3       3       3
       3       3       3       3       3       3       3       3       3       3
       3       3       3       3       3       3       3       3       3       3
       3       3       3       3       3       3       3       3       3       3
       3       3       3       3       3       3       3       3       3       3
       3       3       3       3       3       3       3       3       3       3
       3       3       3       3       3       3       3       3       3       3
       3       3       3       3       3       3       3       3       3       3
       3       3       3       3       3       3       3       3       3       3
       3       3       3       3       3       3       3       3       3       3
       3       3       3       3       3       3       3       3       3       3
       3       3       3       3       3       3       3       3       3       3
       3       3       3       3       3       3       3       3       3       3
       3       3       3       3       3       3       3       3       3       3
       3       3       3       3       3       3       3       3       3       3
       3       3       3       3       3       3       3       3       3       3
       3       3       3       3       3       3       3       3       3       3
       3       3       3       3       3       3       3       3       3       3
       3       3       3       3       3       3       3       3       3       3
       3       3       3       3       3       3       3       3       3       3
       3       3       3       3       3       3       3       3       3       3
       3       3       3       3       3       3       3       3       3       3
       3       3       3       3       3       3       3       3       3       3
       3       3       3       3       3       3       3       3       3       3
       3       3       3       3       3       3       3       3       3       3
       3       3       3       3       3       3       3       3       3       3
       3       3       3       3       3       3       3       3       3       3
       3       3       3       3       3       3       3       3       3       3
       3       3       3       3       3       3       3       3       3       3
       3       3       3       3       3       3       3       3       3       3
       3       3       3       3       3       3       3       3       3       3
       3       3       3       3       3       3       3       3       3       3
       3       3       3       3       3       3       3       3       3       3
       3       3       3       3       3       3       3       3       3       3
       3       3       3       3       3       3       3       3       3       3
       3       3       3       3       3       3       3       3       3       3
       3       3       3       3       3       3       3       3       3       3
       3       3       3       3       3       3       3       3       3       3
       3       3       3       3       3       3       3       3       3       3
       3       3       3       3       3       3       3       3       3       3
       3       3       3       3       3       3       3       3       3       3
       3       3       3       3       3       3       3       3       3       3
       3       3       3       3       3       3       3       3       3       3
       3       3       3       3       3       3       3       3       3       3
       3       3       3       3       3       3       3       3       3       3
       3       3       3       3       3       3       3       3       3       3
       3       3       3       3       3       3       3       3       3       3
       3       3       3       3       3       3       3       3       3       3
       3       3       3       3       3       3       3       3       3       3
       3       3       3       3       3       3       3       3       3       3
       3       3       3       3       3       3       3       3       3       3
       3       3       3       3       3       3       3       3       3       3
       3       3       3       3       3       3       3       3       3       3
       3       3       3       3       3       3       3       3       3       3
       3       3       3       3       3       3       3       3       3       3
       3       3       3       3       3       3       3       3       3       3
       3       3       3       3       3       3       3       3       3       3
       3       3       3       3       3       3       3       3       3       3
       3       3       3       3       3       3       3       3       3       3
       3       3       3       3       3       3       3       3       3       3
       3       3       3       3       3       3       3       3       3       3
       3       3       3       3       3       3       3       3       3       3
       3       3       3       3       3       3       3       3       3       3
       3       3       3       3       3       3       3       3       3       3
       3       3       3       3       3       3       3       3       3       3
       3       3       3       3       3       3       3       3       3       3
       3       3       3       3       3       3       3       3       3       3
       3       3       3       3       3       3       3       3       3       3
       3       3       3       3       3       3       3       3       3       3
       3       3       3       3       3       3       3       3       3       3
       3       3       3       3       3       3       3       3       3       3
       3       3       3       3       3       3       3       3       3       3
       3       3       3       3       3       3       3       3       3       3
       3       3       3       3       3       3       3       3       3       3
       3       3       3       3       3       3       3       3       3       3
       3       3       3       3       3       3       3       3       3       3
       3       3       3       3       3       3       3       3       3       3
       3       3       3       3       3       3       3       3       3       3
       3       3       3       3       3       3       3       3       3       3
       3       3       3       3       3       3       3       3       3       3
       3       3       3       3       3       3       3       3       3       3
       3       3       3       3       3       3       3       3       3       3
       3       3       3       3       3       3       3       3       3       3
       3       3       3       3       3       3       3       3       3       3
       3       3       3       3       3       3       3       3       3       3
       3       3       3       3       3       3       3       3       3       3
       3       3       3       3       3       3       3       3       3       3
       3       3       3       3       3       3       3       3       3       3
       3       3       3       3       3       3       3       3       3       3
       3       3       3       3       3       3       3       3       3       3
       3       3       3       3       3       3       3       3       3       3
       3       3       3       3       3       3       3       3       3       3
       3       3       3       3       3       3       3       3       3       3
       3       3       3       3       3       3       3       3       3       3
       3       3       3       3       3       3       3       3       3       3
       3       3       3       3       3       3       3       3       3       3
       3       3       3       3       3       3       3       3       3       3
       3       3       3       3       3       3       3       3       3       3
       3       3       3       3       3       3       3       3       3       3
       3       3       3       3       3       3       3       3       3       3
       3       3       3       3       3       3       3       3       3       3
       3       3       3       3       3       3       3       3       3       3
       3       3       3       3       3       3       3       3       3       3
       3       3       3       3       3       3       3       3       3       3
       3       3       3       3       3       3       3       3       3       3
       3       3       3       3       3       3       3       3       3       3
       3       3       3       3       3       3       3       3       3       3
       3       3       3       3       3       3       3       3       3       3
       3       3       3       3       3       3       3       3       3       3
       3       3       3       3       3       3       3       3       3       3
       3       3       3       3       3       3       3       3       3       3
       3       3       3       3       3       3       3       3       3       3
       3       3       3       3       3       3       3       3       3       3
       3       3       3       3       3       3       3       3       3       3
       3       3       3       3       3       3       3       3       3       3
       3       3       3       3       3       3       3       3       3       3
       3       3       3       3       3       3       3       3       3       3
       3       3       3       3       3       3       3       3       3       3
       3       3       3       3       3       3       3       3       3       3
       3       3       3       3       3       3       3       3       3       3
       3       3       3       3       3       3       3       3       3       3
       3       3       3       3       3       3       3       3       3       3
       3       3       3       3       3       3       3       3       3       3
       3       3       3       3       3       3       3       3       3       3
       3       3       3       3       3       3       3       3       3       3
       3       3       3       3       3       3       3       3       3       3
       3       3       3       3       3       3       3       3       3       3
       3       3       3       3       3       3       3       3       3       3
       3       3       3       3       3       3       3       3       3       3
       3       3       3       3       3       3       3       3       3       3
       3       3       3       3       3       3       3       3       3       3
       3       3       3       3       3       3       3       3       3       3
       3       3       3       3       3       3       3       3       3       3
       3       3       3       3       3       3       3       3       3       3
       3       3       3       3       3       3       3       3       3       3
       3       3       3       3       3       3       3       3       3       3
       3       3       3       3       3       3       3       3       3       3
       3       3       3       3       3       3       3       3       3       3
       3       3       3       3       3       3       3       3       3       3
       3       3       3       3       3       3       3       3       3       3
       3       3       3       3       3       3       3       3       3       3
       3       3       3       3       3       3       3       3       3       3
       3       3       3       3       3       3       3       3       3       3
       3       3       3       3       3       3       3       3       3       3
       3       3       3       3       3       3       3       3       3       3
       3       3       3       3       3       3       3       3       3       3
       3       3       3       3       3       3       3       3       3       3
       3       3       3       3       3       3       3       3       3       3
       3       3       3       3       3       3       3       3       3       3
       3       3       3       3       3       3       3       3       3       3
       3       3       3       3       3       3       3       3       3       3
       3       3       3       3       3       3       3       3       3       3
       3       3       3       3       3       3       3       3       3       3
       3       3       3       3       3       3       3       3       3       3
       3       3       3       3       3       3       3       3       3       3
       3       3       3       3       3       3       3       3       3       3
       3       3       3       3       3       3       3       3       3       3
       3       3       3       3       3       3       3       3       3       3
       3       3       3       3       3       3       3       3       3       3
       3       3       3       3       3       3       3       3       3       3
       3       3       3       3       3       3       3       3       3       3
       3       3       3       3       3       3       3       3       3       3
       3       3       3       3       3       3       3       3       3       3
       3       3       3       3       3       3       3       3       3       3
       3       3       3       3       3       3       3       3       3       3
       3       3       3       3       3       3       3       3       3       3
       3       3       3       3       3       3       3       3       3       3
       3       3       3       3       3       3       3       3       3       3
       3       3       3       3       3       3       3       3       3       3
       3       3       3       3       3       3       3       3       3       3
       3       3       3       3       3       3       3       3       3       3
       3       3       3       3       3       3       3       3       3       3
       3       3       3       3       3       3       3       3       3       3
       3       3       3       3       3       3       3       3       3       3
       3       3       3       3       3       3       3       3       3       3
       3       3       3       3       3       3       3       3       3       3
       3       3       3       3       3       3       3       3       3       3
       3       3       3       3       3       3       3       3       3       3
       3       3       3       3       3       3       3       3       3       3
       3       3       3       3       3       3       3       3       3       3
       3       3       3       3       3       3       3       3       3       3
       3       3       3       3       3       3       3       3       3       3
       3       3       3       3       3       3       3       3       3       3
       3       3       3       3       3       3       3       3       3       3
       3       3       3       3       3       3       3       3       3       3
       3       3       3       3       3       3       3       3       3       3
       3       3       3       3       3       3       3       3       3       3
       3       3       3       3       3       3       3       3       3       3
       3       3       3       3       3       3       3       3       3       3
       3       3       3       3       3       3       3       3       3       3
       3       3       3       3       3       3       3       3       3       3
       3       3       3       3       3       3       3       3       3       3
       3       3       3       3       3       3       3       3       3       3
       3       3       3       3       3       3       3       3       3       3
       3       3       3       3       3       3       3       3       3       3
       3       3       3       3       3       3       3       3       3       3
       3       3       3       3       3       3       3       3       3       3
       3       3       3       3       3       3       3       3       3       3
       3       3       3       3       3       3       3       3       3       3
       3       3       3       3       3       3       3       3       3       3
       3       3       3       3       3       3       3       3       3       3
       3       3       3       3       3       3       3       3       3       3
       3       3       3       3       3       3       3       3       3       3
       3       3       3       3       3       3       3       3       3       3
       3       3       3       3       3       3       3       3       3       3
       3       3       3       3       3       3       3       3       3       3
       3       3       3       3       3       3       3       3       3       3
       3       3       3       3       3       3       3       3       3       3
       3       3       3       3       3       3       3       3       3       3
       3       3       3       3       3       3       3       3       3       3
       3       3       3       3       3       3       3       3       3       3
       3       3       3       3       3       3       3       3       3       3
       3       3       3       3       3       3       3       3       3       3
       3       3       3       3       3       3       3       3       3       3
       3       3       3       3       3       3       3       3       3       3
       3       3       3       3       3       3       3       3       3       3
       3       3       3       3       3       3       3       3       3       3
       3       3       3       3       3       3       3       3       3       3
       3       3       3       3       3       3       3       3       3       3
       3       3       3       3       3       3       3       3       3       3
       3       3       3       3       3       3       3       3       3       3
       3       3       3       3       3       3       3       3       3       3
       3       3       3       3       3       3       3       3       3       3
       3       3       3       3       3       3       3       3       3       3
       3       3       3       3       3       3       3       3       3       3
       3       3       3       3       3       3       3       3       3       3
       3       3       3       3       3       3       3       3       3       3
       3       3       3       3       3       3       3       3       3       3
       3       3       3       3       3       3       3       3       3       3
       3       3       3       3       3       3       3       3       3       3
       3       3       3       3       3       3       3       3       3       3
       3       3       3       3       3       3       3       3       3       3
       3       3       3       3       3       3       3       3       3       3
       3       3       3       3       3       3       3       3       3       3
       3       3       3       3       3       3       3       3       3       3
       3       3       3       3       3       3       3       3       3       3
       3       3       3       3       3       3       3       3       3       3
       3       3       3       3       3       3       3       3       3       3
       3       3       3       3       3       3       3       3       3       3
       3       3       3       3       3       3       3       3       3       3
       3       3       3       3       3       3       3       3       3       3
       3       3       3       3       3       3       3       3       3       3
       3       3       3       3       3       3       3       3       3       3
       3       3       3       3       3       3       3       3       3       3
       3       3       3       3       3       3       3       3       3       3
       3       3       3       3       3       3       3       3       3       3
       3       3       3       3       3       3       3       3       3       3
       3       3       3       3       3       3       3       3       3       3
       3       3       3       3       3       3       3       3       3       3
       3       3       3       3       3       3       3       3       3       3
       3       3       3       3       3       3       3       3       3       3
       3       3       3       3       3       3       3       3       3       3
       3       3       3       3       3       3       3       3       3       3
       3       3       3       3       3       3       3       3       3       3
       3       3       3       3       3       3       3       3       3       3
       3       3       3       3       3       3       3       3       3       3
       3       3       3       3       3       3       3       3       3       3
       3       3       3       3       3       3       3       3       3       3
       3       3       3       3       3       3       3       3       3       3
       3       3       3       3       3       3       3       3       3       3
       3       3       3       3       3       3       3       3       3       3
       3       3       3       3       3       3       3       3       3       3
       3       3       3       3       3       3       3       3       3       3
       3       3       3       3       3       3       3       3       3       3
       3       3       3       3       3       3       3       3       3       3
       3       3       3       3       3       3       3       3       3       3
       3       3       3       3       3       3       3       3       3       3
       3       3       3       3       3       3       3       3       3       3
       3       3       3       3       3       3       3       3       3       3
       3       3       3       3       3       3       3       3       3       3
       3       3       3       3       3       3       3       3       3       3
       3       3       3       3       3       3       3       3       3       3
       3       3       3       3       3       3       3       3       3       3
       3       3       3       3       3       3       3       3       3       3
       3       3       3       3       3       3       3       3       3       3
       3       3       3       3       3       3       3       3       3       3
       3       3       3       3       3       3       3       3       3       3
       3       3       3       3       3       3       3       3       3       3
       3       3       3       3       3       3       3       3       3       3
       3       3       3       3       3       3       3       3       3       3
       3       3       3       3       3       3       3       3       3       3
       3       3       3       3       3       3       3       3       3       3
       3       3       3       3       3       3       3       3       3       3
       3       3       3       3       3       3       3       3       3       3
       3       3       3       3       3       3       3       3       3       3
       3       3       3       3       3       3       3       3       3       3
       3       3       3       3       3       3       3       3       3       3
       3       3       3       3       3       3       3       3       3       3
       3       3       3       3       3       3       3       3       3       3
       3       3       3       3       3       3       3       3       3       3
       3       3       3       3       3       3       3       3       3       3
       3       3       3       3       3       3       3       3       3       3
       3       3       3       3       3       3       3       3       3       3
       3       3       3       3       3       3       3       3       3       3
       3       3       3       3       3       3       3       3       3       3
       3       3       3       3       3       3       3       3       3       3
       3       3       3       3       3       3       3       3       3       3
       3       3       3       3       3       3       3       3       3       3
       3       3       3       3       3       3       3       3       3       3
       3       3       3       3       3       3       3       3       3       3
       3       3       3       3       3       3       3       3       3       3
       3       3       3       3       3       3       3       3       3       3
       3       3       3       3       3       3       3       3       3       3
       3       3       3       3       3       3       3       3       3       3
       3       3       3       3       3       3       3       3       3       3
       3       3       3       3       3       3       3       3       3       3
       3       3       3       3       3       3       3       3       3       3
       3       3       3       3       3       3       3       3       3       3
       3       3       3       3       3       3       3       3       3       3
       3       3       3       3       3       3       3       3       3       3
       3       3       3       3       3       3       3       3       3       3
       3       3       3       3       3       3       3       3       3       3
       3       3       3       3       3       3       3       3       3       3
       3       3       3       3       3       3       3       3       3       3
       3       3       3       3       3       3       3       3       3       3
       3       3       3       3       3       3       3       3       3       3
       3       3       3       3       3       3       3       3       3       3
       3       3       3       3       3       3       3       3       3       3
       3       3       3       3       3       3       3       3       3       3
       3       3       3       3       3       3       3       3       3       3
       3       3       3       3       3       3       3       3       3       3
       3       3       3       3       3       3       3       3       3       3
       3       3       3       3       3       3       3       3       3       3
       3       3       3       3       3       3       3       3       3       3
       3       3       3       3       3       3       3       3       3       3
       3       3       3       3       3       3       3       3       3       3
       3       3       3       3       3       3       3       3       3       3
       3       3       3       3       3       3       3       3       3       3
       3       3       3       3       3       3       3       3       3       3
       3       3       3       3       3       3       3       3       3       3
       3       3       3       3       3       3       3       3       3       3
       3       3       3       3       3       3       3       3       3       3
       3       3       3       3       3       3       3       3       3       3
       3       3       3       3       3       3       3       3       3       3
       3       3       3       3       3       3       3       3       3       3
       3       3       3       3       3
%FLAG BOX_DIMENSIONS                                                            
%FORMAT(5E16.8)                                                                 
  9.00000000E+01  8.20860490E+01  9.23551890E+01  6.82765680E+01
%FLAG RADIUS_SET                                                                
%FORMAT(1a80)                                                                   
modified Bondi radii (mbondi)                                                   
%FLAG RADII                                                                     
%FORMAT(5E16.8)                                                                 
  1.70000000E+00  1.70000000E+00  1.70000000E+00  1.70000000E+00  1.70000000E+00
  1.70000000E+00  1.70000000E+00  1.70000000E+00  1.70000000E+00  1.70000000E+00
  1.70000000E+00  1.70000000E+00  1.70000000E+00  1.70000000E+00  1.70000000E+00
  1.70000000E+00  1.30000000E+00  1.30000000E+00  1.30000000E+00  1.30000000E+00
  1.30000000E+00  1.30000000E+00  1.30000000E+00  1.30000000E+00  1.30000000E+00
  1.30000000E+00  1.70000000E+00  1.30000000E+00  1.30000000E+00  1.50000000E+00
  1.70000000E+00  1.70000000E+00  1.30000000E+00  1.70000000E+00  1.70000000E+00
  1.70000000E+00  1.70000000E+00  1.70000000E+00  1.70000000E+00  1.30000000E+00
  1.55000000E+00  1.70000000E+00  1.70000000E+00  1.70000000E+00  1.70000000E+00
  1.50000000E+00  1.70000000E+00  1.70000000E+00  1.50000000E+00  1.70000000E+00
  1.70000000E+00  1.50000000E+00  1.50000000E+00  1.70000000E+00  1.50000000E+00
  1.70000000E+00  1.50000000E+00  1.70000000E+00  1.50000000E+00  1.30000000E+00
  1.30000000E+00  1.30000000E+00  1.30000000E+00  1.30000000E+00  1.30000000E+00
  1.30000000E+00  1.30000000E+00  1.30000000E+00  1.30000000E+00  1.30000000E+00
  1.30000000E+00  1.30000000E+00  1.30000000E+00  1.30000000E+00  1.30000000E+00
  8.00000000E-01  1.30000000E+00  1.30000000E+00  1.30000000E+00  8.00000000E-01
  1.30000000E+00  8.00000000E-01  1.30000000E+00  8.00000000E-01  1.50000000E+00
  1.70000000E+00  1.70000000E+00  1.30000000E+00  1.70000000E+00  1.70000000E+00
  1.70000000E+00  1.70000000E+00  1.70000000E+00  1.70000000E+00  1.30000000E+00
  1.55000000E+00  1.70000000E+00  1.70000000E+00  1.70000000E+00  1.70000000E+00
  1.50000000E+00  1.70000000E+00  1.70000000E+00  1.50000000E+00  1.70000000E+00
  1.70000000E+00  1.50000000E+00  1.50000000E+00  1.70000000E+00  1.50000000E+00
  1.70000000E+00  1.50000000E+00  1.70000000E+00  1.50000000E+00  1.30000000E+00
  1.30000000E+00  1.30000000E+00  1.30000000E+00  1.30000000E+00  1.30000000E+00
  1.30000000E+00  1.30000000E+00  1.30000000E+00  1.30000000E+00  1.30000000E+00
  1.30000000E+00  1.30000000E+00  1.30000000E+00  1.30000000E+00  1.30000000E+00
  8.00000000E-01  1.30000000E+00  1.30000000E+00  1.30000000E+00  8.00000000E-01
  1.30000000E+00  8.00000000E-01  1.30000000E+00  8.00000000E-01  1.50000000E+00
  1.70000000E+00  1.70000000E+00  1.30000000E+00  1.70000000E+00  1.70000000E+00
  1.70000000E+00  1.70000000E+00  1.70000000E+00  1.70000000E+00  1.30000000E+00
  1.55000000E+00  1.70000000E+00  1.70000000E+00  1.70000000E+00  1.70000000E+00
  1.50000000E+00  1.70000000E+00  1.70000000E+00  1.50000000E+00  1.70000000E+00
  1.70000000E+00  1.50000000E+00  1.50000000E+00  1.70000000E+00  1.50000000E+00
  1.70000000E+00  1.50000000E+00  1.70000000E+00  1.50000000E+00  1.30000000E+00
  1.30000000E+00  1.30000000E+00  1.30000000E+00  1.30000000E+00  1.30000000E+00
  1.30000000E+00  1.30000000E+00  1.30000000E+00  1.30000000E+00  1.30000000E+00
  1.30000000E+00  1.30000000E+00  1.30000000E+00  1.30000000E+00  1.30000000E+00
  8.00000000E-01  1.30000000E+00  1.30000000E+00  1.30000000E+00  8.00000000E-01
  1.30000000E+00  8.00000000E-01  1.30000000E+00  8.00000000E-01  1.50000000E+00
  1.70000000E+00  1.70000000E+00  1.30000000E+00  1.70000000E+00  1.70000000E+00
  1.70000000E+00  1.70000000E+00  1.70000000E+00  1.70000000E+00  1.30000000E+00
  1.55000000E+00  1.70000000E+00  1.70000000E+00  1.70000000E+00  1.70000000E+00
  1.50000000E+00  1.70000000E+00  1.70000000E+00  1.50000000E+00  1.70000000E+00
  1.70000000E+00  1.50000000E+00  1.50000000E+00  1.70000000E+00  1.50000000E+00
  1.70000000E+00  1.50000000E+00  1.70000000E+00  1.50000000E+00  1.30000000E+00
  1.30000000E+00  1.30000000E+00  1.30000000E+00  1.30000000E+00  1.30000000E+00
  1.30000000E+00  1.30000000E+00  1.30000000E+00  1.30000000E+00  1.30000000E+00
  1.30000000E+00  1.30000000E+00  1.30000000E+00  1.30000000E+00  1.30000000E+00
  8.00000000E-01  1.30000000E+00  1.30000000E+00  1.30000000E+00  8.00000000E-01
  1.30000000E+00  8.00000000E-01  1.30000000E+00  8.00000000E-01  1.50000000E+00
  1.70000000E+00  1.70000000E+00  1.30000000E+00  1.70000000E+00  1.70000000E+00
  1.70000000E+00  1.70000000E+00  1.70000000E+00  1.70000000E+00  1.30000000E+00
  1.55000000E+00  1.70000000E+00  1.70000000E+00  1.70000000E+00  1.70000000E+00
  1.50000000E+00  1.70000000E+00  1.70000000E+00  1.50000000E+00  1.70000000E+00
  1.70000000E+00  1.50000000E+00  1.50000000E+00  1.70000000E+00  1.50000000E+00
  1.70000000E+00  1.50000000E+00  1.70000000E+00  1.50000000E+00  1.30000000E+00
  1.30000000E+00  1.30000000E+00  1.30000000E+00  1.30000000E+00  1.30000000E+00
  1.30000000E+00  1.30000000E+00  1.30000000E+00  1.30000000E+00  1.30000000E+00
  1.30000000E+00  1.30000000E+00  1.30000000E+00  1.30000000E+00  1.30000000E+00
  8.00000000E-01  1.30000000E+00  1.30000000E+00  1.30000000E+00  8.00000000E-01
  1.30000000E+00  8.00000000E-01  1.30000000E+00  8.00000000E-01  1.50000000E+00
  1.70000000E+00  1.70000000E+00  1.30000000E+00  1.70000000E+00  1.70000000E+00
  1.70000000E+00  1.70000000E+00  1.70000000E+00  1.70000000E+00  1.30000000E+00
  1.55000000E+00  1.70000000E+00  1.70000000E+00  1.70000000E+00  1.70000000E+00
  1.50000000E+00  1.70000000E+00  1.70000000E+00  1.50000000E+00  1.70000000E+00
  1.70000000E+00  1.50000000E+00  1.50000000E+00  1.70000000E+00  1.50000000E+00
  1.70000000E+00  1.50000000E+00  1.70000000E+00  1.50000000E+00  1.30000000E+00
  1.30000000E+00  1.30000000E+00  1.30000000E+00  1.30000000E+00  1.30000000E+00
  1.30000000E+00  1.30000000E+00  1.30000000E+00  1.30000000E+00  1.30000000E+00
  1.30000000E+00  1.30000000E+00  1.30000000E+00  1.30000000E+00  1.30000000E+00
  8.00000000E-01  1.30000000E+00  1.30000000E+00  1.30000000E+00  8.00000000E-01
  1.30000000E+00  8.00000000E-01  1.30000000E+00  8.00000000E-01  1.50000000E+00
  1.70000000E+00  1.70000000E+00  1.30000000E+00  1.70000000E+00  1.70000000E+00
  1.70000000E+00  1.70000000E+00  1.70000000E+00  1.70000000E+00  1.30000000E+00
  1.55000000E+00  1.70000000E+00  1.70000000E+00  1.70000000E+00  1.70000000E+00
  1.50000000E+00  1.70000000E+00  1.70000000E+00  1.50000000E+00  1.70000000E+00
  1.70000000E+00  1.50000000E+00  1.50000000E+00  1.70000000E+00  1.50000000E+00
  1.70000000E+00  1.50000000E+00  1.70000000E+00  1.50000000E+00  1.30000000E+00
  1.30000000E+00  1.30000000E+00  1.30000000E+00  1.30000000E+00  1.30000000E+00
  1.30000000E+00  1.30000000E+00  1.30000000E+00  1.30000000E+00  1.30000000E+00
  1.30000000E+00  1.30000000E+00  1.30000000E+00  1.30000000E+00  1.30000000E+00
  8.00000000E-01  1.30000000E+00  1.30000000E+00  1.30000000E+00  8.00000000E-01
  1.30000000E+00  8.00000000E-01  1.30000000E+00  8.00000000E-01  1.50000000E+00
  1.70000000E+00  1.70000000E+00  1.30000000E+00  1.70000000E+00  1.70000000E+00
  1.70000000E+00  1.70000000E+00  1.70000000E+00  1.70000000E+00  1.30000000E+00
  1.55000000E+00  1.70000000E+00  1.70000000E+00  1.70000000E+00  1.70000000E+00
  1.50000000E+00  1.70000000E+00  1.70000000E+00  1.50000000E+00  1.70000000E+00
  1.70000000E+00  1.50000000E+00  1.50000000E+00  1.70000000E+00  1.50000000E+00
  1.70000000E+00  1.50000000E+00  1.70000000E+00  1.50000000E+00  1.30000000E+00
  1.30000000E+00  1.30000000E+00  1.30000000E+00  1.30000000E+00  1.30000000E+00
  1.30000000E+00  1.30000000E+00  1.30000000E+00  1.30000000E+00  1.30000000E+00
  1.30000000E+00  1.30000000E+00  1.30000000E+00  1.30000000E+00  1.30000000E+00
  8.00000000E-01  1.30000000E+00  1.30000000E+00  1.30000000E+00  8.00000000E-01
  1.30000000E+00  8.00000000E-01  1.30000000E+00  8.00000000E-01  1.50000000E+00
  1.70000000E+00  1.70000000E+00  1.30000000E+00  1.70000000E+00  1.70000000E+00
  1.70000000E+00  1.70000000E+00  1.70000000E+00  1.70000000E+00  1.30000000E+00
  1.55000000E+00  1.70000000E+00  1.70000000E+00  1.70000000E+00  1.70000000E+00
  1.50000000E+00  1.70000000E+00  1.70000000E+00  1.50000000E+00  1.70000000E+00
  1.70000000E+00  1.50000000E+00  1.50000000E+00  1.70000000E+00  1.50000000E+00
  1.70000000E+00  1.50000000E+00  1.70000000E+00  1.50000000E+00  1.30000000E+00
  1.30000000E+00  1.30000000E+00  1.30000000E+00  1.30000000E+00  1.30000000E+00
  1.30000000E+00  1.30000000E+00  1.30000000E+00  1.30000000E+00  1.30000000E+00
  1.30000000E+00  1.30000000E+00  1.30000000E+00  1.30000000E+00  1.30000000E+00
  8.00000000E-01  1.30000000E+00  1.30000000E+00  1.30000000E+00  8.00000000E-01
  1.30000000E+00  8.00000000E-01  1.30000000E+00  8.00000000E-01  1.50000000E+00
  1.70000000E+00  1.70000000E+00  1.30000000E+00  1.70000000E+00  1.70000000E+00
  1.70000000E+00  1.70000000E+00  1.70000000E+00  1.70000000E+00  1.30000000E+00
  1.55000000E+00  1.70000000E+00  1.70000000E+00  1.70000000E+00  1.70000000E+00
  1.50000000E+00  1.70000000E+00  1.70000000E+00  1.50000000E+00  1.70000000E+00
  1.70000000E+00  1.50000000E+00  1.50000000E+00  1.70000000E+00  1.50000000E+00
  1.70000000E+00  1.50000000E+00  1.70000000E+00  1.50000000E+00  1.30000000E+00
  1.30000000E+00  1.30000000E+00  1.30000000E+00  1.30000000E+00  1.30000000E+00
  1.30000000E+00  1.30000000E+00  1.30000000E+00  1.30000000E+00  1.30000000E+00
  1.30000000E+00  1.30000000E+00  1.30000000E+00  1.30000000E+00  1.30000000E+00
  8.00000000E-01  1.30000000E+00  1.30000000E+00  1.30000000E+00  8.00000000E-01
  1.30000000E+00  8.00000000E-01  1.30000000E+00  8.00000000E-01  1.70000000E+00
  1.30000000E+00  1.30000000E+00  1.70000000E+00  1.30000000E+00  1.30000000E+00
  1.50000000E+00  1.70000000E+00  1.70000000E+00  1.30000000E+00  1.70000000E+00
  1.70000000E+00  1.70000000E+00  1.70000000E+00  1.70000000E+00  1.70000000E+00
  1.30000000E+00  1.55000000E+00  1.70000000E+00  1.70000000E+00  1.70000000E+00
  1.70000000E+00  1.50000000E+00  1.70000000E+00  1.70000000E+00  1.50000000E+00
  1.70000000E+00  1.70000000E+00  1.50000000E+00  1.50000000E+00  1.70000000E+00
  1.50000000E+00  1.70000000E+00  1.50000000E+00  1.70000000E+00  1.50000000E+00
  1.30000000E+00  1.30000000E+00  1.30000000E+00  1.30000000E+00  1.30000000E+00
  1.30000000E+00  1.30000000E+00  1.30000000E+00  1.30000000E+00  1.30000000E+00
  1.30000000E+00  1.30000000E+00  1.30000000E+00  1.30000000E+00  1.30000000E+00
  1.30000000E+00  8.00000000E-01  1.30000000E+00  1.30000000E+00  1.30000000E+00
  8.00000000E-01  1.30000000E+00  8.00000000E-01  1.30000000E+00  8.00000000E-01
  1.50000000E+00  1.70000000E+00  1.70000000E+00  1.30000000E+00  1.70000000E+00
  1.70000000E+00  1.70000000E+00  1.70000000E+00  1.70000000E+00  1.70000000E+00
  1.30000000E+00  1.55000000E+00  1.70000000E+00  1.70000000E+00  1.70000000E+00
  1.70000000E+00  1.50000000E+00  1.70000000E+00  1.70000000E+00  1.50000000E+00
  1.70000000E+00  1.70000000E+00  1.50000000E+00  1.50000000E+00  1.70000000E+00
  1.50000000E+00  1.70000000E+00  1.50000000E+00  1.70000000E+00  1.50000000E+00
  1.30000000E+00  1.30000000E+00  1.30000000E+00  1.30000000E+00  1.30000000E+00
  1.30000000E+00  1.30000000E+00  1.30000000E+00  1.30000000E+00  1.30000000E+00
  1.30000000E+00  1.30000000E+00  1.30000000E+00  1.30000000E+00  1.30000000E+00
  1.30000000E+00  8.00000000E-01  1.30000000E+00  1.30000000E+00  1.30000000E+00
  8.00000000E-01  1.30000000E+00  8.00000000E-01  1.30000000E+00  8.00000000E-01
  1.50000000E+00  1.70000000E+00  1.70000000E+00  1.30000000E+00  1.70000000E+00
  1.70000000E+00  1.70000000E+00  1.70000000E+00  1.70000000E+00  1.70000000E+00
  1.30000000E+00  1.55000000E+00  1.70000000E+00  1.70000000E+00  1.70000000E+00
  1.70000000E+00  1.50000000E+00  1.70000000E+00  1.70000000E+00  1.50000000E+00
  1.70000000E+00  1.70000000E+00  1.50000000E+00  1.50000000E+00  1.70000000E+00
  1.50000000E+00  1.70000000E+00  1.50000000E+00  1.70000000E+00  1.50000000E+00
  1.30000000E+00  1.30000000E+00  1.30000000E+00  1.30000000E+00  1.30000000E+00
  1.30000000E+00  1.30000000E+00  1.30000000E+00  1.30000000E+00  1.30000000E+00
  1.30000000E+00  1.30000000E+00  1.30000000E+00  1.30000000E+00  1.30000000E+00
  1.30000000E+00  8.00000000E-01  1.30000000E+00  1.30000000E+00  1.30000000E+00
  8.00000000E-01  1.30000000E+00  8.00000000E-01  1.30000000E+00  8.00000000E-01
  1.50000000E+00  1.70000000E+00  1.70000000E+00  1.30000000E+00  1.70000000E+00
  1.70000000E+00  1.70000000E+00  1.70000000E+00  1.70000000E+00  1.70000000E+00
  1.30000000E+00  1.55000000E+00  1.70000000E+00  1.70000000E+00  1.70000000E+00
  1.70000000E+00  1.50000000E+00  1.70000000E+00  1.70000000E+00  1.50000000E+00
  1.70000000E+00  1.70000000E+00  1.50000000E+00  1.50000000E+00  1.70000000E+00
  1.50000000E+00  1.70000000E+00  1.50000000E+00  1.70000000E+00  1.50000000E+00
  1.30000000E+00  1.30000000E+00  1.30000000E+00  1.30000000E+00  1.30000000E+00
  1.30000000E+00  1.30000000E+00  1.30000000E+00  1.30000000E+00  1.30000000E+00
  1.30000000E+00  1.30000000E+00  1.30000000E+00  1.30000000E+00  1.30000000E+00
  1.30000000E+00  8.00000000E-01  1.30000000E+00  1.30000000E+00  1.30000000E+00
  8.00000000E-01  1.30000000E+00  8.00000000E-01  1.30000000E+00  8.00000000E-01
  1.50000000E+00  1.70000000E+00  1.70000000E+00  1.30000000E+00  1.70000000E+00
  1.70000000E+00  1.70000000E+00  1.70000000E+00  1.70000000E+00  1.70000000E+00
  1.30000000E+00  1.55000000E+00  1.70000000E+00  1.70000000E+00  1.70000000E+00
  1.70000000E+00  1.50000000E+00  1.70000000E+00  1.70000000E+00  1.50000000E+00
  1.70000000E+00  1.70000000E+00  1.50000000E+00  1.50000000E+00  1.70000000E+00
  1.50000000E+00  1.70000000E+00  1.50000000E+00  1.70000000E+00  1.50000000E+00
  1.30000000E+00  1.30000000E+00  1.30000000E+00  1.30000000E+00  1.30000000E+00
  1.30000000E+00  1.30000000E+00  1.30000000E+00  1.30000000E+00  1.30000000E+00
  1.30000000E+00  1.30000000E+00  1.30000000E+00  1.30000000E+00  1.30000000E+00
  1.30000000E+00  8.00000000E-01  1.30000000E+00  1.30000000E+00  1.30000000E+00
  8.00000000E-01  1.30000000E+00  8.00000000E-01  1.30000000E+00  8.00000000E-01
  1.50000000E+00  1.70000000E+00  1.70000000E+00  1.30000000E+00  1.70000000E+00
  1.70000000E+00  1.70000000E+00  1.70000000E+00  1.70000000E+00  1.70000000E+00
  1.30000000E+00  1.55000000E+00  1.70000000E+00  1.70000000E+00  1.70000000E+00
  1.70000000E+00  1.50000000E+00  1.70000000E+00  1.70000000E+00  1.50000000E+00
  1.70000000E+00  1.70000000E+00  1.50000000E+00  1.50000000E+00  1.70000000E+00
  1.50000000E+00  1.70000000E+00  1.50000000E+00  1.70000000E+00  1.50000000E+00
  1.30000000E+00  1.30000000E+00  1.30000000E+00  1.30000000E+00  1.30000000E+00
  1.30000000E+00  1.30000000E+00  1.30000000E+00  1.30000000E+00  1.30000000E+00
  1.30000000E+00  1.30000000E+00  1.30000000E+00  1.30000000E+00  1.30000000E+00
  1.30000000E+00  8.00000000E-01  1.30000000E+00  1.30000000E+00  1.30000000E+00
  8.00000000E-01  1.30000000E+00  8.00000000E-01  1.30000000E+00  8.00000000E-01
  1.50000000E+00  1.70000000E+00  1.70000000E+00  1.30000000E+00  1.70000000E+00
  1.70000000E+00  1.70000000E+00  1.70000000E+00  1.70000000E+00  1.70000000E+00
  1.30000000E+00  1.55000000E+00  1.70000000E+00  1.70000000E+00  1.70000000E+00
  1.70000000E+00  1.50000000E+00  1.70000000E+00  1.70000000E+00  1.50000000E+00
  1.70000000E+00  1.70000000E+00  1.50000000E+00  1.50000000E+00  1.70000000E+00
  1.50000000E+00  1.70000000E+00  1.50000000E+00  1.70000000E+00  1.50000000E+00
  1.30000000E+00  1.30000000E+00  1.30000000E+00  1.30000000E+00  1.30000000E+00
  1.30000000E+00  1.30000000E+00  1.30000000E+00  1.30000000E+00  1.30000000E+00
  1.30000000E+00  1.30000000E+00  1.30000000E+00  1.30000000E+00  1.30000000E+00
  1.30000000E+00  8.00000000E-01  1.30000000E+00  1.30000000E+00  1.30000000E+00
  8.00000000E-01  1.30000000E+00  8.00000000E-01  1.30000000E+00  8.00000000E-01
  1.50000000E+00  1.70000000E+00  1.70000000E+00  1.30000000E+00  1.70000000E+00
  1.70000000E+00  1.70000000E+00  1.70000000E+00  1.70000000E+00  1.70000000E+00
  1.30000000E+00  1.55000000E+00  1.70000000E+00  1.70000000E+00  1.70000000E+00
  1.70000000E+00  1.50000000E+00  1.70000000E+00  1.70000000E+00  1.50000000E+00
  1.70000000E+00  1.70000000E+00  1.50000000E+00  1.50000000E+00  1.70000000E+00
  1.50000000E+00  1.70000000E+00  1.50000000E+00  1.70000000E+00  1.50000000E+00
  1.30000000E+00  1.30000000E+00  1.30000000E+00  1.30000000E+00  1.30000000E+00
  1.30000000E+00  1.30000000E+00  1.30000000E+00  1.30000000E+00  1.30000000E+00
  1.30000000E+00  1.30000000E+00  1.30000000E+00  1.30000000E+00  1.30000000E+00
  1.30000000E+00  8.00000000E-01  1.30000000E+00  1.30000000E+00  1.30000000E+00
  8.00000000E-01  1.30000000E+00  8.00000000E-01  1.30000000E+00  8.00000000E-01
  1.50000000E+00  1.70000000E+00  1.70000000E+00  1.30000000E+00  1.70000000E+00
  1.70000000E+00  1.70000000E+00  1.70000000E+00  1.70000000E+00  1.70000000E+00
  1.30000000E+00  1.55000000E+00  1.70000000E+00  1.70000000E+00  1.70000000E+00
  1.70000000E+00  1.50000000E+00  1.70000000E+00  1.70000000E+00  1.50000000E+00
  1.70000000E+00  1.70000000E+00  1.50000000E+00  1.50000000E+00  1.70000000E+00
  1.50000000E+00  1.70000000E+00  1.50000000E+00  1.70000000E+00  1.50000000E+00
  1.30000000E+00  1.30000000E+00  1.30000000E+00  1.30000000E+00  1.30000000E+00
  1.30000000E+00  1.30000000E+00  1.30000000E+00  1.30000000E+00  1.30000000E+00
  1.30000000E+00  1.30000000E+00  1.30000000E+00  1.30000000E+00  1.30000000E+00
  1.30000000E+00  8.00000000E-01  1.30000000E+00  1.30000000E+00  1.30000000E+00
  8.00000000E-01  1.30000000E+00  8.00000000E-01  1.30000000E+00  8.00000000E-01
  1.50000000E+00  1.70000000E+00  1.70000000E+00  1.30000000E+00  1.70000000E+00
  1.70000000E+00  1.70000000E+00  1.70000000E+00  1.70000000E+00  1.70000000E+00
  1.30000000E+00  1.55000000E+00  1.70000000E+00  1.70000000E+00  1.70000000E+00
  1.70000000E+00  1.50000000E+00  1.70000000E+00  1.70000000E+00  1.50000000E+00
  1.70000000E+00  1.70000000E+00  1.50000000E+00  1.50000000E+00  1.70000000E+00
  1.50000000E+00  1.70000000E+00  1.50000000E+00  1.70000000E+00  1.50000000E+00
  1.30000000E+00  1.30000000E+00  1.30000000E+00  1.30000000E+00  1.30000000E+00
  1.30000000E+00  1.30000000E+00  1.30000000E+00  1.30000000E+00  1.30000000E+00
  1.30000000E+00  1.30000000E+00  1.30000000E+00  1.30000000E+00  1.30000000E+00
  1.30000000E+00  8.00000000E-01  1.30000000E+00  1.30000000E+00  1.30000000E+00
  8.00000000E-01  1.30000000E+00  8.00000000E-01  1.30000000E+00  8.00000000E-01
  1.70000000E+00  1.30000000E+00  1.30000000E+00  1.70000000E+00  1.30000000E+00
  1.30000000E+00  1.50000000E+00  1.70000000E+00  1.70000000E+00  1.30000000E+00
  1.70000000E+00  1.70000000E+00  1.70000000E+00  1.70000000E+00  1.70000000E+00
  1.70000000E+00  1.30000000E+00  1.55000000E+00  1.70000000E+00  1.70000000E+00
  1.70000000E+00  1.70000000E+00  1.50000000E+00  1.70000000E+00  1.70000000E+00
  1.50000000E+00  1.70000000E+00  1.70000000E+00  1.50000000E+00  1.50000000E+00
  1.70000000E+00  1.50000000E+00  1.70000000E+00  1.50000000E+00  1.70000000E+00
  1.50000000E+00  1.30000000E+00  1.30000000E+00  1.30000000E+00  1.30000000E+00
  1.30000000E+00  1.30000000E+00  1.30000000E+00  1.30000000E+00  1.30000000E+00
  1.30000000E+00  1.30000000E+00  1.30000000E+00  1.30000000E+00  1.30000000E+00
  1.30000000E+00  1.30000000E+00  8.00000000E-01  1.30000000E+00  1.30000000E+00
  1.30000000E+00  8.00000000E-01  1.30000000E+00  8.00000000E-01  1.30000000E+00
  8.00000000E-01  1.50000000E+00  1.70000000E+00  1.70000000E+00  1.30000000E+00
  1.70000000E+00  1.70000000E+00  1.70000000E+00  1.70000000E+00  1.70000000E+00
  1.70000000E+00  1.30000000E+00  1.55000000E+00  1.70000000E+00  1.70000000E+00
  1.70000000E+00  1.70000000E+00  1.50000000E+00  1.70000000E+00  1.70000000E+00
  1.50000000E+00  1.70000000E+00  1.70000000E+00  1.50000000E+00  1.50000000E+00
  1.70000000E+00  1.50000000E+00  1.70000000E+00  1.50000000E+00  1.70000000E+00
  1.50000000E+00  1.30000000E+00  1.30000000E+00  1.30000000E+00  1.30000000E+00
  1.30000000E+00  1.30000000E+00  1.30000000E+00  1.30000000E+00  1.30000000E+00
  1.30000000E+00  1.30000000E+00  1.30000000E+00  1.30000000E+00  1.30000000E+00
  1.30000000E+00  1.30000000E+00  8.00000000E-01  1.30000000E+00  1.30000000E+00
  1.30000000E+00  8.00000000E-01  1.30000000E+00  8.00000000E-01  1.30000000E+00
  8.00000000E-01  1.50000000E+00  1.70000000E+00  1.70000000E+00  1.30000000E+00
  1.70000000E+00  1.70000000E+00  1.70000000E+00  1.70000000E+00  1.70000000E+00
  1.70000000E+00  1.30000000E+00  1.55000000E+00  1.70000000E+00  1.70000000E+00
  1.70000000E+00  1.70000000E+00  1.50000000E+00  1.70000000E+00  1.70000000E+00
  1.50000000E+00  1.70000000E+00  1.70000000E+00  1.50000000E+00  1.50000000E+00
  1.70000000E+00  1.50000000E+00  1.70000000E+00  1.50000000E+00  1.70000000E+00
  1.50000000E+00  1.30000000E+00  1.30000000E+00  1.30000000E+00  1.30000000E+00
  1.30000000E+00  1.30000000E+00  1.30000000E+00  1.30000000E+00  1.30000000E+00
  1.30000000E+00  1.30000000E+00  1.30000000E+00  1.30000000E+00  1.30000000E+00
  1.30000000E+00  1.30000000E+00  8.00000000E-01  1.30000000E+00  1.30000000E+00
  1.30000000E+00  8.00000000E-01  1.30000000E+00  8.00000000E-01  1.30000000E+00
  8.00000000E-01  1.50000000E+00  1.70000000E+00  1.70000000E+00  1.30000000E+00
  1.70000000E+00  1.70000000E+00  1.70000000E+00  1.70000000E+00  1.70000000E+00
  1.70000000E+00  1.30000000E+00  1.55000000E+00  1.70000000E+00  1.70000000E+00
  1.70000000E+00  1.70000000E+00  1.50000000E+00  1.70000000E+00  1.70000000E+00
  1.50000000E+00  1.70000000E+00  1.70000000E+00  1.50000000E+00  1.50000000E+00
  1.70000000E+00  1.50000000E+00  1.70000000E+00  1.50000000E+00  1.70000000E+00
  1.50000000E+00  1.30000000E+00  1.30000000E+00  1.30000000E+00  1.30000000E+00
  1.30000000E+00  1.30000000E+00  1.30000000E+00  1.30000000E+00  1.30000000E+00
  1.30000000E+00  1.30000000E+00  1.30000000E+00  1.30000000E+00  1.30000000E+00
  1.30000000E+00  1.30000000E+00  8.00000000E-01  1.30000000E+00  1.30000000E+00
  1.30000000E+00  8.00000000E-01  1.30000000E+00  8.00000000E-01  1.30000000E+00
  8.00000000E-01  1.50000000E+00  1.70000000E+00  1.70000000E+00  1.30000000E+00
  1.70000000E+00  1.70000000E+00  1.70000000E+00  1.70000000E+00  1.70000000E+00
  1.70000000E+00  1.30000000E+00  1.55000000E+00  1.70000000E+00  1.70000000E+00
  1.70000000E+00  1.70000000E+00  1.50000000E+00  1.70000000E+00  1.70000000E+00
  1.50000000E+00  1.70000000E+00  1.70000000E+00  1.50000000E+00  1.50000000E+00
  1.70000000E+00  1.50000000E+00  1.70000000E+00  1.50000000E+00  1.70000000E+00
  1.50000000E+00  1.30000000E+00  1.30000000E+00  1.30000000E+00  1.30000000E+00
  1.30000000E+00  1.30000000E+00  1.30000000E+00  1.30000000E+00  1.30000000E+00
  1.30000000E+00  1.30000000E+00  1.30000000E+00  1.30000000E+00  1.30000000E+00
  1.30000000E+00  1.30000000E+00  8.00000000E-01  1.30000000E+00  1.30000000E+00
  1.30000000E+00  8.00000000E-01  1.30000000E+00  8.00000000E-01  1.30000000E+00
  8.00000000E-01  1.50000000E+00  1.70000000E+00  1.70000000E+00  1.30000000E+00
  1.70000000E+00  1.70000000E+00  1.70000000E+00  1.70000000E+00  1.70000000E+00
  1.70000000E+00  1.30000000E+00  1.55000000E+00  1.70000000E+00  1.70000000E+00
  1.70000000E+00  1.70000000E+00  1.50000000E+00  1.70000000E+00  1.70000000E+00
  1.50000000E+00  1.70000000E+00  1.70000000E+00  1.50000000E+00  1.50000000E+00
  1.70000000E+00  1.50000000E+00  1.70000000E+00  1.50000000E+00  1.70000000E+00
  1.50000000E+00  1.30000000E+00  1.30000000E+00  1.30000000E+00  1.30000000E+00
  1.30000000E+00  1.30000000E+00  1.30000000E+00  1.30000000E+00  1.30000000E+00
  1.30000000E+00  1.30000000E+00  1.30000000E+00  1.30000000E+00  1.30000000E+00
  1.30000000E+00  1.30000000E+00  8.00000000E-01  1.30000000E+00  1.30000000E+00
  1.30000000E+00  8.00000000E-01  1.30000000E+00  8.00000000E-01  1.30000000E+00
  8.00000000E-01  1.50000000E+00  1.70000000E+00  1.70000000E+00  1.30000000E+00
  1.70000000E+00  1.70000000E+00  1.70000000E+00  1.70000000E+00  1.70000000E+00
  1.70000000E+00  1.30000000E+00  1.55000000E+00  1.70000000E+00  1.70000000E+00
  1.70000000E+00  1.70000000E+00  1.50000000E+00  1.70000000E+00  1.70000000E+00
  1.50000000E+00  1.70000000E+00  1.70000000E+00  1.50000000E+00  1.50000000E+00
  1.70000000E+00  1.50000000E+00  1.70000000E+00  1.50000000E+00  1.70000000E+00
  1.50000000E+00  1.30000000E+00  1.30000000E+00  1.30000000E+00  1.30000000E+00
  1.30000000E+00  1.30000000E+00  1.30000000E+00  1.30000000E+00  1.30000000E+00
  1.30000000E+00  1.30000000E+00  1.30000000E+00  1.30000000E+00  1.30000000E+00
  1.30000000E+00  1.30000000E+00  8.00000000E-01  1.30000000E+00  1.30000000E+00
  1.30000000E+00  8.00000000E-01  1.30000000E+00  8.00000000E-01  1.30000000E+00
  8.00000000E-01  1.50000000E+00  1.70000000E+00  1.70000000E+00  1.30000000E+00
  1.70000000E+00  1.70000000E+00  1.70000000E+00  1.70000000E+00  1.70000000E+00
  1.70000000E+00  1.30000000E+00  1.55000000E+00  1.70000000E+00  1.70000000E+00
  1.70000000E+00  1.70000000E+00  1.50000000E+00  1.70000000E+00  1.70000000E+00
  1.50000000E+00  1.70000000E+00  1.70000000E+00  1.50000000E+00  1.50000000E+00
  1.70000000E+00  1.50000000E+00  1.70000000E+00  1.50000000E+00  1.70000000E+00
  1.50000000E+00  1.30000000E+00  1.30000000E+00  1.30000000E+00  1.30000000E+00
  1.30000000E+00  1.30000000E+00  1.30000000E+00  1.30000000E+00  1.30000000E+00
  1.30000000E+00  1.30000000E+00  1.30000000E+00  1.30000000E+00  1.30000000E+00
  1.30000000E+00  1.30000000E+00  8.00000000E-01  1.30000000E+00  1.30000000E+00
  1.30000000E+00  8.00000000E-01  1.30000000E+00  8.00000000E-01  1.30000000E+00
  8.00000000E-01  1.50000000E+00  1.70000000E+00  1.70000000E+00  1.30000000E+00
  1.70000000E+00  1.70000000E+00  1.70000000E+00  1.70000000E+00  1.70000000E+00
  1.70000000E+00  1.30000000E+00  1.55000000E+00  1.70000000E+00  1.70000000E+00
  1.70000000E+00  1.70000000E+00  1.50000000E+00  1.70000000E+00  1.70000000E+00
  1.50000000E+00  1.70000000E+00  1.70000000E+00  1.50000000E+00  1.50000000E+00
  1.70000000E+00  1.50000000E+00  1.70000000E+00  1.50000000E+00  1.70000000E+00
  1.50000000E+00  1.30000000E+00  1.30000000E+00  1.30000000E+00  1.30000000E+00
  1.30000000E+00  1.30000000E+00  1.30000000E+00  1.30000000E+00  1.30000000E+00
  1.30000000E+00  1.30000000E+00  1.30000000E+00  1.30000000E+00  1.30000000E+00
  1.30000000E+00  1.30000000E+00  8.00000000E-01  1.30000000E+00  1.30000000E+00
  1.30000000E+00  8.00000000E-01  1.30000000E+00  8.00000000E-01  1.30000000E+00
  8.00000000E-01  1.50000000E+00  1.70000000E+00  1.70000000E+00  1.30000000E+00
  1.70000000E+00  1.70000000E+00  1.70000000E+00  1.70000000E+00  1.70000000E+00
  1.70000000E+00  1.30000000E+00  1.55000000E+00  1.70000000E+00  1.70000000E+00
  1.70000000E+00  1.70000000E+00  1.50000000E+00  1.70000000E+00  1.70000000E+00
  1.50000000E+00  1.70000000E+00  1.70000000E+00  1.50000000E+00  1.50000000E+00
  1.70000000E+00  1.50000000E+00  1.70000000E+00  1.50000000E+00  1.70000000E+00
  1.50000000E+00  1.30000000E+00  1.30000000E+00  1.30000000E+00  1.30000000E+00
  1.30000000E+00  1.30000000E+00  1.30000000E+00  1.30000000E+00  1.30000000E+00
  1.30000000E+00  1.30000000E+00  1.30000000E+00  1.30000000E+00  1.30000000E+00
  1.30000000E+00  1.30000000E+00  8.00000000E-01  1.30000000E+00  1.30000000E+00
  1.30000000E+00  8.00000000E-01  1.30000000E+00  8.00000000E-01  1.30000000E+00
  8.00000000E-01  1.70000000E+00  1.30000000E+00  1.30000000E+00  1.50000000E+00
  8.00000000E-01  8.00000000E-01  1.50000000E+00  8.00000000E-01  8.00000000E-01
  1.50000000E+00  8.00000000E-01  8.00000000E-01  1.50000000E+00  8.00000000E-01
  8.00000000E-01  1.50000000E+00  8.00000000E-01  8.00000000E-01  1.50000000E+00
  8.00000000E-01  8.00000000E-01  1.50000000E+00  8.00000000E-01  8.00000000E-01
  1.50000000E+00  8.00000000E-01  8.00000000E-01  1.50000000E+00  8.00000000E-01
  8.00000000E-01  1.50000000E+00  8.00000000E-01  8.00000000E-01  1.50000000E+00
  8.00000000E-01  8.00000000E-01  1.50000000E+00  8.00000000E-01  8.00000000E-01
  1.50000000E+00  8.00000000E-01  8.00000000E-01  1.50000000E+00  8.00000000E-01
  8.00000000E-01  1.50000000E+00  8.00000000E-01  8.00000000E-01  1.50000000E+00
  8.00000000E-01  8.00000000E-01  1.50000000E+00  8.00000000E-01  8.00000000E-01
  1.50000000E+00  8.00000000E-01  8.00000000E-01  1.50000000E+00  8.00000000E-01
  8.00000000E-01  1.50000000E+00  8.00000000E-01  8.00000000E-01  1.50000000E+00
  8.00000000E-01  8.00000000E-01  1.50000000E+00  8.00000000E-01  8.00000000E-01
  1.50000000E+00  8.00000000E-01  8.00000000E-01  1.50000000E+00  8.00000000E-01
  8.00000000E-01  1.50000000E+00  8.00000000E-01  8.00000000E-01  1.50000000E+00
  8.00000000E-01  8.00000000E-01  1.50000000E+00  8.00000000E-01  8.00000000E-01
  1.50000000E+00  8.00000000E-01  8.00000000E-01  1.50000000E+00  8.00000000E-01
  8.00000000E-01  1.50000000E+00  8.00000000E-01  8.00000000E-01  1.50000000E+00
  8.00000000E-01  8.00000000E-01  1.50000000E+00  8.00000000E-01  8.00000000E-01
  1.50000000E+00  8.00000000E-01  8.00000000E-01  1.50000000E+00  8.00000000E-01
  8.00000000E-01  1.50000000E+00  8.00000000E-01  8.00000000E-01  1.50000000E+00
  8.00000000E-01  8.00000000E-01  1.50000000E+00  8.00000000E-01  8.00000000E-01
  1.50000000E+00  8.00000000E-01  8.00000000E-01  1.50000000E+00  8.00000000E-01
  8.00000000E-01  1.50000000E+00  8.00000000E-01  8.00000000E-01  1.50000000E+00
  8.00000000E-01  8.00000000E-01  1.50000000E+00  8.00000000E-01  8.00000000E-01
  1.50000000E+00  8.00000000E-01  8.00000000E-01  1.50000000E+00  8.00000000E-01
  8.00000000E-01  1.50000000E+00  8.00000000E-01  8.00000000E-01  1.50000000E+00
  8.00000000E-01  8.00000000E-01  1.50000000E+00  8.00000000E-01  8.00000000E-01
  1.50000000E+00  8.00000000E-01  8.00000000E-01  1.50000000E+00  8.00000000E-01
  8.00000000E-01  1.50000000E+00  8.00000000E-01  8.00000000E-01  1.50000000E+00
  8.00000000E-01  8.00000000E-01  1.50000000E+00  8.00000000E-01  8.00000000E-01
  1.50000000E+00  8.00000000E-01  8.00000000E-01  1.50000000E+00  8.00000000E-01
  8.00000000E-01  1.50000000E+00  8.00000000E-01  8.00000000E-01  1.50000000E+00
  8.00000000E-01  8.00000000E-01  1.50000000E+00  8.00000000E-01  8.00000000E-01
  1.50000000E+00  8.00000000E-01  8.00000000E-01  1.50000000E+00  8.00000000E-01
  8.00000000E-01  1.50000000E+00  8.00000000E-01  8.00000000E-01  1.50000000E+00
  8.00000000E-01  8.00000000E-01  1.50000000E+00  8.00000000E-01  8.00000000E-01
  1.50000000E+00  8.00000000E-01  8.00000000E-01  1.50000000E+00  8.00000000E-01
  8.00000000E-01  1.50000000E+00  8.00000000E-01  8.00000000E-01  1.50000000E+00
  8.00000000E-01  8.00000000E-01  1.50000000E+00  8.00000000E-01  8.00000000E-01
  1.50000000E+00  8.00000000E-01  8.00000000E-01  1.50000000E+00  8.00000000E-01
  8.00000000E-01  1.50000000E+00  8.00000000E-01  8.00000000E-01  1.50000000E+00
  8.00000000E-01  8.00000000E-01  1.50000000E+00  8.00000000E-01  8.00000000E-01
  1.50000000E+00  8.00000000E-01  8.00000000E-01  1.50000000E+00  8.00000000E-01
  8.00000000E-01  1.50000000E+00  8.00000000E-01  8.00000000E-01  1.50000000E+00
  8.00000000E-01  8.00000000E-01  1.50000000E+00  8.00000000E-01  8.00000000E-01
  1.50000000E+00  8.00000000E-01  8.00000000E-01  1.50000000E+00  8.00000000E-01
  8.00000000E-01  1.50000000E+00  8.00000000E-01  8.00000000E-01  1.50000000E+00
  8.00000000E-01  8.00000000E-01  1.50000000E+00  8.00000000E-01  8.00000000E-01
  1.50000000E+00  8.00000000E-01  8.00000000E-01  1.50000000E+00  8.00000000E-01
  8.00000000E-01  1.50000000E+00  8.00000000E-01  8.00000000E-01  1.50000000E+00
  8.00000000E-01  8.00000000E-01  1.50000000E+00  8.00000000E-01  8.00000000E-01
  1.50000000E+00  8.00000000E-01  8.00000000E-01  1.50000000E+00  8.00000000E-01
  8.00000000E-01  1.50000000E+00  8.00000000E-01  8.00000000E-01  1.50000000E+00
  8.00000000E-01  8.00000000E-01  1.50000000E+00  8.00000000E-01  8.00000000E-01
  1.50000000E+00  8.00000000E-01  8.00000000E-01  1.50000000E+00  8.00000000E-01
  8.00000000E-01  1.50000000E+00  8.00000000E-01  8.00000000E-01  1.50000000E+00
  8.00000000E-01  8.00000000E-01  1.50000000E+00  8.00000000E-01  8.00000000E-01
  1.50000000E+00  8.00000000E-01  8.00000000E-01  1.50000000E+00  8.00000000E-01
  8.00000000E-01  1.50000000E+00  8.00000000E-01  8.00000000E-01  1.50000000E+00
  8.00000000E-01  8.00000000E-01  1.50000000E+00  8.00000000E-01  8.00000000E-01
  1.50000000E+00  8.00000000E-01  8.00000000E-01  1.50000000E+00  8.00000000E-01
  8.00000000E-01  1.50000000E+00  8.00000000E-01  8.00000000E-01  1.50000000E+00
  8.00000000E-01  8.00000000E-01  1.50000000E+00  8.00000000E-01  8.00000000E-01
  1.50000000E+00  8.00000000E-01  8.00000000E-01  1.50000000E+00  8.00000000E-01
  8.00000000E-01  1.50000000E+00  8.00000000E-01  8.00000000E-01  1.50000000E+00
  8.00000000E-01  8.00000000E-01  1.50000000E+00  8.00000000E-01  8.00000000E-01
  1.50000000E+00  8.00000000E-01  8.00000000E-01  1.50000000E+00  8.00000000E-01
  8.00000000E-01  1.50000000E+00  8.00000000E-01  8.00000000E-01  1.50000000E+00
  8.00000000E-01  8.00000000E-01  1.50000000E+00  8.00000000E-01  8.00000000E-01
  1.50000000E+00  8.00000000E-01  8.00000000E-01  1.50000000E+00  8.00000000E-01
  8.00000000E-01  1.50000000E+00  8.00000000E-01  8.00000000E-01  1.50000000E+00
  8.00000000E-01  8.00000000E-01  1.50000000E+00  8.00000000E-01  8.00000000E-01
  1.50000000E+00  8.00000000E-01  8.00000000E-01  1.50000000E+00  8.00000000E-01
  8.00000000E-01  1.50000000E+00  8.00000000E-01  8.00000000E-01  1.50000000E+00
  8.00000000E-01  8.00000000E-01  1.50000000E+00  8.00000000E-01  8.00000000E-01
  1.50000000E+00  8.00000000E-01  8.00000000E-01  1.50000000E+00  8.00000000E-01
  8.00000000E-01  1.50000000E+00  8.00000000E-01  8.00000000E-01  1.50000000E+00
  8.00000000E-01  8.00000000E-01  1.50000000E+00  8.00000000E-01  8.00000000E-01
  1.50000000E+00  8.00000000E-01  8.00000000E-01  1.50000000E+00  8.00000000E-01
  8.00000000E-01  1.50000000E+00  8.00000000E-01  8.00000000E-01  1.50000000E+00
  8.00000000E-01  8.00000000E-01  1.50000000E+00  8.00000000E-01  8.00000000E-01
  1.50000000E+00  8.00000000E-01  8.00000000E-01  1.50000000E+00  8.00000000E-01
  8.00000000E-01  1.50000000E+00  8.00000000E-01  8.00000000E-01  1.50000000E+00
  8.00000000E-01  8.00000000E-01  1.50000000E+00  8.00000000E-01  8.00000000E-01
  1.50000000E+00  8.00000000E-01  8.00000000E-01  1.50000000E+00  8.00000000E-01
  8.00000000E-01  1.50000000E+00  8.00000000E-01  8.00000000E-01  1.50000000E+00
  8.00000000E-01  8.00000000E-01  1.50000000E+00  8.00000000E-01  8.00000000E-01
  1.50000000E+00  8.00000000E-01  8.00000000E-01  1.50000000E+00  8.00000000E-01
  8.00000000E-01  1.50000000E+00  8.00000000E-01  8.00000000E-01  1.50000000E+00
  8.00000000E-01  8.00000000E-01  1.50000000E+00  8.00000000E-01  8.00000000E-01
  1.50000000E+00  8.00000000E-01  8.00000000E-01  1.50000000E+00  8.00000000E-01
  8.00000000E-01  1.50000000E+00  8.00000000E-01  8.00000000E-01  1.50000000E+00
  8.00000000E-01  8.00000000E-01  1.50000000E+00  8.00000000E-01  8.00000000E-01
  1.50000000E+00  8.00000000E-01  8.00000000E-01  1.50000000E+00  8.00000000E-01
  8.00000000E-01  1.50000000E+00  8.00000000E-01  8.00000000E-01  1.50000000E+00
  8.00000000E-01  8.00000000E-01  1.50000000E+00  8.00000000E-01  8.00000000E-01
  1.50000000E+00  8.00000000E-01  8.00000000E-01  1.50000000E+00  8.00000000E-01
  8.00000000E-01  1.50000000E+00  8.00000000E-01  8.00000000E-01  1.50000000E+00
  8.00000000E-01  8.00000000E-01  1.50000000E+00  8.00000000E-01  8.00000000E-01
  1.50000000E+00  8.00000000E-01  8.00000000E-01  1.50000000E+00  8.00000000E-01
  8.00000000E-01  1.50000000E+00  8.00000000E-01  8.00000000E-01  1.50000000E+00
  8.00000000E-01  8.00000000E-01  1.50000000E+00  8.00000000E-01  8.00000000E-01
  1.50000000E+00  8.00000000E-01  8.00000000E-01  1.50000000E+00  8.00000000E-01
  8.00000000E-01  1.50000000E+00  8.00000000E-01  8.00000000E-01  1.50000000E+00
  8.00000000E-01  8.00000000E-01  1.50000000E+00  8.00000000E-01  8.00000000E-01
  1.50000000E+00  8.00000000E-01  8.00000000E-01  1.50000000E+00  8.00000000E-01
  8.00000000E-01  1.50000000E+00  8.00000000E-01  8.00000000E-01  1.50000000E+00
  8.00000000E-01  8.00000000E-01  1.50000000E+00  8.00000000E-01  8.00000000E-01
  1.50000000E+00  8.00000000E-01  8.00000000E-01  1.50000000E+00  8.00000000E-01
  8.00000000E-01  1.50000000E+00  8.00000000E-01  8.00000000E-01  1.50000000E+00
  8.00000000E-01  8.00000000E-01  1.50000000E+00  8.00000000E-01  8.00000000E-01
  1.50000000E+00  8.00000000E-01  8.00000000E-01  1.50000000E+00  8.00000000E-01
  8.00000000E-01  1.50000000E+00  8.00000000E-01  8.00000000E-01  1.50000000E+00
  8.00000000E-01  8.00000000E-01  1.50000000E+00  8.00000000E-01  8.00000000E-01
  1.50000000E+00  8.00000000E-01  8.00000000E-01  1.50000000E+00  8.00000000E-01
  8.00000000E-01  1.50000000E+00  8.00000000E-01  8.00000000E-01  1.50000000E+00
  8.00000000E-01  8.00000000E-01  1.50000000E+00  8.00000000E-01  8.00000000E-01
  1.50000000E+00  8.00000000E-01  8.00000000E-01  1.50000000E+00  8.00000000E-01
  8.00000000E-01  1.50000000E+00  8.00000000E-01  8.00000000E-01  1.50000000E+00
  8.00000000E-01  8.00000000E-01  1.50000000E+00  8.00000000E-01  8.00000000E-01
  1.50000000E+00  8.00000000E-01  8.00000000E-01  1.50000000E+00  8.00000000E-01
  8.00000000E-01  1.50000000E+00  8.00000000E-01  8.00000000E-01  1.50000000E+00
  8.00000000E-01  8.00000000E-01  1.50000000E+00  8.00000000E-01  8.00000000E-01
  1.50000000E+00  8.00000000E-01  8.00000000E-01  1.50000000E+00  8.00000000E-01
  8.00000000E-01  1.50000000E+00  8.00000000E-01  8.00000000E-01  1.50000000E+00
  8.00000000E-01  8.00000000E-01  1.50000000E+00  8.00000000E-01  8.00000000E-01
  1.50000000E+00  8.00000000E-01  8.00000000E-01  1.50000000E+00  8.00000000E-01
  8.00000000E-01  1.50000000E+00  8.00000000E-01  8.00000000E-01  1.50000000E+00
  8.00000000E-01  8.00000000E-01  1.50000000E+00  8.00000000E-01  8.00000000E-01
  1.50000000E+00  8.00000000E-01  8.00000000E-01  1.50000000E+00  8.00000000E-01
  8.00000000E-01  1.50000000E+00  8.00000000E-01  8.00000000E-01  1.50000000E+00
  8.00000000E-01  8.00000000E-01  1.50000000E+00  8.00000000E-01  8.00000000E-01
  1.50000000E+00  8.00000000E-01  8.00000000E-01  1.50000000E+00  8.00000000E-01
  8.00000000E-01  1.50000000E+00  8.00000000E-01  8.00000000E-01  1.50000000E+00
  8.00000000E-01  8.00000000E-01  1.50000000E+00  8.00000000E-01  8.00000000E-01
  1.50000000E+00  8.00000000E-01  8.00000000E-01  1.50000000E+00  8.00000000E-01
  8.00000000E-01  1.50000000E+00  8.00000000E-01  8.00000000E-01  1.50000000E+00
  8.00000000E-01  8.00000000E-01  1.50000000E+00  8.00000000E-01  8.00000000E-01
  1.50000000E+00  8.00000000E-01  8.00000000E-01  1.50000000E+00  8.00000000E-01
  8.00000000E-01  1.50000000E+00  8.00000000E-01  8.00000000E-01  1.50000000E+00
  8.00000000E-01  8.00000000E-01  1.50000000E+00  8.00000000E-01  8.00000000E-01
  1.50000000E+00  8.00000000E-01  8.00000000E-01  1.50000000E+00  8.00000000E-01
  8.00000000E-01  1.50000000E+00  8.00000000E-01  8.00000000E-01  1.50000000E+00
  8.00000000E-01  8.00000000E-01  1.50000000E+00  8.00000000E-01  8.00000000E-01
  1.50000000E+00  8.00000000E-01  8.00000000E-01  1.50000000E+00  8.00000000E-01
  8.00000000E-01  1.50000000E+00  8.00000000E-01  8.00000000E-01  1.50000000E+00
  8.00000000E-01  8.00000000E-01  1.50000000E+00  8.00000000E-01  8.00000000E-01
  1.50000000E+00  8.00000000E-01  8.00000000E-01  1.50000000E+00  8.00000000E-01
  8.00000000E-01  1.50000000E+00  8.00000000E-01  8.00000000E-01  1.50000000E+00
  8.00000000E-01  8.00000000E-01  1.50000000E+00  8.00000000E-01  8.00000000E-01
  1.50000000E+00  8.00000000E-01  8.00000000E-01  1.50000000E+00  8.00000000E-01
  8.00000000E-01  1.50000000E+00  8.00000000E-01  8.00000000E-01  1.50000000E+00
  8.00000000E-01  8.00000000E-01  1.50000000E+00  8.00000000E-01  8.00000000E-01
  1.50000000E+00  8.00000000E-01  8.00000000E-01  1.50000000E+00  8.00000000E-01
  8.00000000E-01  1.50000000E+00  8.00000000E-01  8.00000000E-01  1.50000000E+00
  8.00000000E-01  8.00000000E-01  1.50000000E+00  8.00000000E-01  8.00000000E-01
  1.50000000E+00  8.00000000E-01  8.00000000E-01  1.50000000E+00  8.00000000E-01
  8.00000000E-01  1.50000000E+00  8.00000000E-01  8.00000000E-01  1.50000000E+00
  8.00000000E-01  8.00000000E-01  1.50000000E+00  8.00000000E-01  8.00000000E-01
  1.50000000E+00  8.00000000E-01  8.00000000E-01  1.50000000E+00  8.00000000E-01
  8.00000000E-01  1.50000000E+00  8.00000000E-01  8.00000000E-01  1.50000000E+00
  8.00000000E-01  8.00000000E-01  1.50000000E+00  8.00000000E-01  8.00000000E-01
  1.50000000E+00  8.00000000E-01  8.00000000E-01  1.50000000E+00  8.00000000E-01
  8.00000000E-01  1.50000000E+00  8.00000000E-01  8.00000000E-01  1.50000000E+00
  8.00000000E-01  8.00000000E-01  1.50000000E+00  8.00000000E-01  8.00000000E-01
  1.50000000E+00  8.00000000E-01  8.00000000E-01  1.50000000E+00  8.00000000E-01
  8.00000000E-01  1.50000000E+00  8.00000000E-01  8.00000000E-01  1.50000000E+00
  8.00000000E-01  8.00000000E-01  1.50000000E+00  8.00000000E-01  8.00000000E-01
  1.50000000E+00  8.00000000E-01  8.00000000E-01  1.50000000E+00  8.00000000E-01
  8.00000000E-01  1.50000000E+00  8.00000000E-01  8.00000000E-01  1.50000000E+00
  8.00000000E-01  8.00000000E-01  1.50000000E+00  8.00000000E-01  8.00000000E-01
  1.50000000E+00  8.00000000E-01  8.00000000E-01  1.50000000E+00  8.00000000E-01
  8.00000000E-01  1.50000000E+00  8.00000000E-01  8.00000000E-01  1.50000000E+00
  8.00000000E-01  8.00000000E-01  1.50000000E+00  8.00000000E-01  8.00000000E-01
  1.50000000E+00  8.00000000E-01  8.00000000E-01  1.50000000E+00  8.00000000E-01
  8.00000000E-01  1.50000000E+00  8.00000000E-01  8.00000000E-01  1.50000000E+00
  8.00000000E-01  8.00000000E-01  1.50000000E+00  8.00000000E-01  8.00000000E-01
  1.50000000E+00  8.00000000E-01  8.00000000E-01  1.50000000E+00  8.00000000E-01
  8.00000000E-01  1.50000000E+00  8.00000000E-01  8.00000000E-01  1.50000000E+00
  8.00000000E-01  8.00000000E-01  1.50000000E+00  8.00000000E-01  8.00000000E-01
  1.50000000E+00  8.00000000E-01  8.00000000E-01  1.50000000E+00  8.00000000E-01
  8.00000000E-01  1.50000000E+00  8.00000000E-01  8.00000000E-01  1.50000000E+00
  8.00000000E-01  8.00000000E-01  1.50000000E+00  8.00000000E-01  8.00000000E-01
  1.50000000E+00  8.00000000E-01  8.00000000E-01  1.50000000E+00  8.00000000E-01
  8.00000000E-01  1.50000000E+00  8.00000000E-01  8.00000000E-01  1.50000000E+00
  8.00000000E-01  8.00000000E-01  1.50000000E+00  8.00000000E-01  8.00000000E-01
  1.50000000E+00  8.00000000E-01  8.00000000E-01  1.50000000E+00  8.00000000E-01
  8.00000000E-01  1.50000000E+00  8.00000000E-01  8.00000000E-01  1.50000000E+00
  8.00000000E-01  8.00000000E-01  1.50000000E+00  8.00000000E-01  8.00000000E-01
  1.50000000E+00  8.00000000E-01  8.00000000E-01  1.50000000E+00  8.00000000E-01
  8.00000000E-01  1.50000000E+00  8.00000000E-01  8.00000000E-01  1.50000000E+00
  8.00000000E-01  8.00000000E-01  1.50000000E+00  8.00000000E-01  8.00000000E-01
  1.50000000E+00  8.00000000E-01  8.00000000E-01  1.50000000E+00  8.00000000E-01
  8.00000000E-01  1.50000000E+00  8.00000000E-01  8.00000000E-01  1.50000000E+00
  8.00000000E-01  8.00000000E-01  1.50000000E+00  8.00000000E-01  8.00000000E-01
  1.50000000E+00  8.00000000E-01  8.00000000E-01  1.50000000E+00  8.00000000E-01
  8.00000000E-01  1.50000000E+00  8.00000000E-01  8.00000000E-01  1.50000000E+00
  8.00000000E-01  8.00000000E-01  1.50000000E+00  8.00000000E-01  8.00000000E-01
  1.50000000E+00  8.00000000E-01  8.00000000E-01  1.50000000E+00  8.00000000E-01
  8.00000000E-01  1.50000000E+00  8.00000000E-01  8.00000000E-01  1.50000000E+00
  8.00000000E-01  8.00000000E-01  1.50000000E+00  8.00000000E-01  8.00000000E-01
  1.50000000E+00  8.00000000E-01  8.00000000E-01  1.50000000E+00  8.00000000E-01
  8.00000000E-01  1.50000000E+00  8.00000000E-01  8.00000000E-01  1.50000000E+00
  8.00000000E-01  8.00000000E-01  1.50000000E+00  8.00000000E-01  8.00000000E-01
  1.50000000E+00  8.00000000E-01  8.00000000E-01  1.50000000E+00  8.00000000E-01
  8.00000000E-01  1.50000000E+00  8.00000000E-01  8.00000000E-01  1.50000000E+00
  8.00000000E-01  8.00000000E-01  1.50000000E+00  8.00000000E-01  8.00000000E-01
  1.50000000E+00  8.00000000E-01  8.00000000E-01  1.50000000E+00  8.00000000E-01
  8.00000000E-01  1.50000000E+00  8.00000000E-01  8.00000000E-01  1.50000000E+00
  8.00000000E-01  8.00000000E-01  1.50000000E+00  8.00000000E-01  8.00000000E-01
  1.50000000E+00  8.00000000E-01  8.00000000E-01  1.50000000E+00  8.00000000E-01
  8.00000000E-01  1.50000000E+00  8.00000000E-01  8.00000000E-01  1.50000000E+00
  8.00000000E-01  8.00000000E-01  1.50000000E+00  8.00000000E-01  8.00000000E-01
  1.50000000E+00  8.00000000E-01  8.00000000E-01  1.50000000E+00  8.00000000E-01
  8.00000000E-01  1.50000000E+00  8.00000000E-01  8.00000000E-01  1.50000000E+00
  8.00000000E-01  8.00000000E-01  1.50000000E+00  8.00000000E-01  8.00000000E-01
  1.50000000E+00  8.00000000E-01  8.00000000E-01  1.50000000E+00  8.00000000E-01
  8.00000000E-01  1.50000000E+00  8.00000000E-01  8.00000000E-01  1.50000000E+00
  8.00000000E-01  8.00000000E-01  1.50000000E+00  8.00000000E-01  8.00000000E-01
  1.50000000E+00  8.00000000E-01  8.00000000E-01  1.50000000E+00  8.00000000E-01
  8.00000000E-01  1.50000000E+00  8.00000000E-01  8.00000000E-01  1.50000000E+00
  8.00000000E-01  8.00000000E-01  1.50000000E+00  8.00000000E-01  8.00000000E-01
  1.50000000E+00  8.00000000E-01  8.00000000E-01  1.50000000E+00  8.00000000E-01
  8.00000000E-01  1.50000000E+00  8.00000000E-01  8.00000000E-01  1.50000000E+00
  8.00000000E-01  8.00000000E-01  1.50000000E+00  8.00000000E-01  8.00000000E-01
  1.50000000E+00  8.00000000E-01  8.00000000E-01  1.50000000E+00  8.00000000E-01
  8.00000000E-01  1.50000000E+00  8.00000000E-01  8.00000000E-01  1.50000000E+00
  8.00000000E-01  8.00000000E-01  1.50000000E+00  8.00000000E-01  8.00000000E-01
  1.50000000E+00  8.00000000E-01  8.00000000E-01  1.50000000E+00  8.00000000E-01
  8.00000000E-01  1.50000000E+00  8.00000000E-01  8.00000000E-01  1.50000000E+00
  8.00000000E-01  8.00000000E-01  1.50000000E+00  8.00000000E-01  8.00000000E-01
  1.50000000E+00  8.00000000E-01  8.00000000E-01  1.50000000E+00  8.00000000E-01
  8.00000000E-01  1.50000000E+00  8.00000000E-01  8.00000000E-01  1.50000000E+00
  8.00000000E-01  8.00000000E-01  1.50000000E+00  8.00000000E-01  8.00000000E-01
  1.50000000E+00  8.00000000E-01  8.00000000E-01  1.50000000E+00  8.00000000E-01
  8.00000000E-01  1.50000000E+00  8.00000000E-01  8.00000000E-01  1.50000000E+00
  8.00000000E-01  8.00000000E-01  1.50000000E+00  8.00000000E-01  8.00000000E-01
  1.50000000E+00  8.00000000E-01  8.00000000E-01  1.50000000E+00  8.00000000E-01
  8.00000000E-01  1.50000000E+00  8.00000000E-01  8.00000000E-01  1.50000000E+00
  8.00000000E-01  8.00000000E-01  1.50000000E+00  8.00000000E-01  8.00000000E-01
  1.50000000E+00  8.00000000E-01  8.00000000E-01  1.50000000E+00  8.00000000E-01
  8.00000000E-01  1.50000000E+00  8.00000000E-01  8.00000000E-01  1.50000000E+00
  8.00000000E-01  8.00000000E-01  1.50000000E+00  8.00000000E-01  8.00000000E-01
  1.50000000E+00  8.00000000E-01  8.00000000E-01  1.50000000E+00  8.00000000E-01
  8.00000000E-01  1.50000000E+00  8.00000000E-01  8.00000000E-01  1.50000000E+00
  8.00000000E-01  8.00000000E-01  1.50000000E+00  8.00000000E-01  8.00000000E-01
  1.50000000E+00  8.00000000E-01  8.00000000E-01  1.50000000E+00  8.00000000E-01
  8.00000000E-01  1.50000000E+00  8.00000000E-01  8.00000000E-01  1.50000000E+00
  8.00000000E-01  8.00000000E-01  1.50000000E+00  8.00000000E-01  8.00000000E-01
  1.50000000E+00  8.00000000E-01  8.00000000E-01  1.50000000E+00  8.00000000E-01
  8.00000000E-01  1.50000000E+00  8.00000000E-01  8.00000000E-01  1.50000000E+00
  8.00000000E-01  8.00000000E-01  1.50000000E+00  8.00000000E-01  8.00000000E-01
  1.50000000E+00  8.00000000E-01  8.00000000E-01  1.50000000E+00  8.00000000E-01
  8.00000000E-01  1.50000000E+00  8.00000000E-01  8.00000000E-01  1.50000000E+00
  8.00000000E-01  8.00000000E-01  1.50000000E+00  8.00000000E-01  8.00000000E-01
  1.50000000E+00  8.00000000E-01  8.00000000E-01  1.50000000E+00  8.00000000E-01
  8.00000000E-01  1.50000000E+00  8.00000000E-01  8.00000000E-01  1.50000000E+00
  8.00000000E-01  8.00000000E-01  1.50000000E+00  8.00000000E-01  8.00000000E-01
  1.50000000E+00  8.00000000E-01  8.00000000E-01  1.50000000E+00  8.00000000E-01
  8.00000000E-01  1.50000000E+00  8.00000000E-01  8.00000000E-01  1.50000000E+00
  8.00000000E-01  8.00000000E-01  1.50000000E+00  8.00000000E-01  8.00000000E-01
  1.50000000E+00  8.00000000E-01  8.00000000E-01  1.50000000E+00  8.00000000E-01
  8.00000000E-01  1.50000000E+00  8.00000000E-01  8.00000000E-01  1.50000000E+00
  8.00000000E-01  8.00000000E-01  1.50000000E+00  8.00000000E-01  8.00000000E-01
  1.50000000E+00  8.00000000E-01  8.00000000E-01  1.50000000E+00  8.00000000E-01
  8.00000000E-01  1.50000000E+00  8.00000000E-01  8.00000000E-01  1.50000000E+00
  8.00000000E-01  8.00000000E-01  1.50000000E+00  8.00000000E-01  8.00000000E-01
  1.50000000E+00  8.00000000E-01  8.00000000E-01  1.50000000E+00  8.00000000E-01
  8.00000000E-01  1.50000000E+00  8.00000000E-01  8.00000000E-01  1.50000000E+00
  8.00000000E-01  8.00000000E-01  1.50000000E+00  8.00000000E-01  8.00000000E-01
  1.50000000E+00  8.00000000E-01  8.00000000E-01  1.50000000E+00  8.00000000E-01
  8.00000000E-01  1.50000000E+00  8.00000000E-01  8.00000000E-01  1.50000000E+00
  8.00000000E-01  8.00000000E-01  1.50000000E+00  8.00000000E-01  8.00000000E-01
  1.50000000E+00  8.00000000E-01  8.00000000E-01  1.50000000E+00  8.00000000E-01
  8.00000000E-01  1.50000000E+00  8.00000000E-01  8.00000000E-01  1.50000000E+00
  8.00000000E-01  8.00000000E-01  1.50000000E+00  8.00000000E-01  8.00000000E-01
  1.50000000E+00  8.00000000E-01  8.00000000E-01  1.50000000E+00  8.00000000E-01
  8.00000000E-01  1.50000000E+00  8.00000000E-01  8.00000000E-01  1.50000000E+00
  8.00000000E-01  8.00000000E-01  1.50000000E+00  8.00000000E-01  8.00000000E-01
  1.50000000E+00  8.00000000E-01  8.00000000E-01  1.50000000E+00  8.00000000E-01
  8.00000000E-01  1.50000000E+00  8.00000000E-01  8.00000000E-01  1.50000000E+00
  8.00000000E-01  8.00000000E-01  1.50000000E+00  8.00000000E-01  8.00000000E-01
  1.50000000E+00  8.00000000E-01  8.00000000E-01  1.50000000E+00  8.00000000E-01
  8.00000000E-01  1.50000000E+00  8.00000000E-01  8.00000000E-01  1.50000000E+00
  8.00000000E-01  8.00000000E-01  1.50000000E+00  8.00000000E-01  8.00000000E-01
  1.50000000E+00  8.00000000E-01  8.00000000E-01  1.50000000E+00  8.00000000E-01
  8.00000000E-01  1.50000000E+00  8.00000000E-01  8.00000000E-01  1.50000000E+00
  8.00000000E-01  8.00000000E-01  1.50000000E+00  8.00000000E-01  8.00000000E-01
  1.50000000E+00  8.00000000E-01  8.00000000E-01  1.50000000E+00  8.00000000E-01
  8.00000000E-01  1.50000000E+00  8.00000000E-01  8.00000000E-01  1.50000000E+00
  8.00000000E-01  8.00000000E-01  1.50000000E+00  8.00000000E-01  8.00000000E-01
  1.50000000E+00  8.00000000E-01  8.00000000E-01  1.50000000E+00  8.00000000E-01
  8.00000000E-01  1.50000000E+00  8.00000000E-01  8.00000000E-01  1.50000000E+00
  8.00000000E-01  8.00000000E-01  1.50000000E+00  8.00000000E-01  8.00000000E-01
  1.50000000E+00  8.00000000E-01  8.00000000E-01  1.50000000E+00  8.00000000E-01
  8.00000000E-01  1.50000000E+00  8.00000000E-01  8.00000000E-01  1.50000000E+00
  8.00000000E-01  8.00000000E-01  1.50000000E+00  8.00000000E-01  8.00000000E-01
  1.50000000E+00  8.00000000E-01  8.00000000E-01  1.50000000E+00  8.00000000E-01
  8.00000000E-01  1.50000000E+00  8.00000000E-01  8.00000000E-01  1.50000000E+00
  8.00000000E-01  8.00000000E-01  1.50000000E+00  8.00000000E-01  8.00000000E-01
  1.50000000E+00  8.00000000E-01  8.00000000E-01  1.50000000E+00  8.00000000E-01
  8.00000000E-01  1.50000000E+00  8.00000000E-01  8.00000000E-01  1.50000000E+00
  8.00000000E-01  8.00000000E-01  1.50000000E+00  8.00000000E-01  8.00000000E-01
  1.50000000E+00  8.00000000E-01  8.00000000E-01  1.50000000E+00  8.00000000E-01
  8.00000000E-01  1.50000000E+00  8.00000000E-01  8.00000000E-01  1.50000000E+00
  8.00000000E-01  8.00000000E-01  1.50000000E+00  8.00000000E-01  8.00000000E-01
  1.50000000E+00  8.00000000E-01  8.00000000E-01  1.50000000E+00  8.00000000E-01
  8.00000000E-01  1.50000000E+00  8.00000000E-01  8.00000000E-01  1.50000000E+00
  8.00000000E-01  8.00000000E-01  1.50000000E+00  8.00000000E-01  8.00000000E-01
  1.50000000E+00  8.00000000E-01  8.00000000E-01  1.50000000E+00  8.00000000E-01
  8.00000000E-01  1.50000000E+00  8.00000000E-01  8.00000000E-01  1.50000000E+00
  8.00000000E-01  8.00000000E-01  1.50000000E+00  8.00000000E-01  8.00000000E-01
  1.50000000E+00  8.00000000E-01  8.00000000E-01  1.50000000E+00  8.00000000E-01
  8.00000000E-01  1.50000000E+00  8.00000000E-01  8.00000000E-01  1.50000000E+00
  8.00000000E-01  8.00000000E-01  1.50000000E+00  8.00000000E-01  8.00000000E-01
  1.50000000E+00  8.00000000E-01  8.00000000E-01  1.50000000E+00  8.00000000E-01
  8.00000000E-01  1.50000000E+00  8.00000000E-01  8.00000000E-01  1.50000000E+00
  8.00000000E-01  8.00000000E-01  1.50000000E+00  8.00000000E-01  8.00000000E-01
  1.50000000E+00  8.00000000E-01  8.00000000E-01  1.50000000E+00  8.00000000E-01
  8.00000000E-01  1.50000000E+00  8.00000000E-01  8.00000000E-01  1.50000000E+00
  8.00000000E-01  8.00000000E-01  1.50000000E+00  8.00000000E-01  8.00000000E-01
  1.50000000E+00  8.00000000E-01  8.00000000E-01  1.50000000E+00  8.00000000E-01
  8.00000000E-01  1.50000000E+00  8.00000000E-01  8.00000000E-01  1.50000000E+00
  8.00000000E-01  8.00000000E-01  1.50000000E+00  8.00000000E-01  8.00000000E-01
  1.50000000E+00  8.00000000E-01  8.00000000E-01  1.50000000E+00  8.00000000E-01
  8.00000000E-01  1.50000000E+00  8.00000000E-01  8.00000000E-01  1.50000000E+00
  8.00000000E-01  8.00000000E-01  1.50000000E+00  8.00000000E-01  8.00000000E-01
  1.50000000E+00  8.00000000E-01  8.00000000E-01  1.50000000E+00  8.00000000E-01
  8.00000000E-01  1.50000000E+00  8.00000000E-01  8.00000000E-01  1.50000000E+00
  8.00000000E-01  8.00000000E-01  1.50000000E+00  8.00000000E-01  8.00000000E-01
  1.50000000E+00  8.00000000E-01  8.00000000E-01  1.50000000E+00  8.00000000E-01
  8.00000000E-01  1.50000000E+00  8.00000000E-01  8.00000000E-01  1.50000000E+00
  8.00000000E-01  8.00000000E-01  1.50000000E+00  8.00000000E-01  8.00000000E-01
  1.50000000E+00  8.00000000E-01  8.00000000E-01  1.50000000E+00  8.00000000E-01
  8.00000000E-01  1.50000000E+00  8.00000000E-01  8.00000000E-01  1.50000000E+00
  8.00000000E-01  8.00000000E-01  1.50000000E+00  8.00000000E-01  8.00000000E-01
  1.50000000E+00  8.00000000E-01  8.00000000E-01  1.50000000E+00  8.00000000E-01
  8.00000000E-01  1.50000000E+00  8.00000000E-01  8.00000000E-01  1.50000000E+00
  8.00000000E-01  8.00000000E-01  1.50000000E+00  8.00000000E-01  8.00000000E-01
  1.50000000E+00  8.00000000E-01  8.00000000E-01  1.50000000E+00  8.00000000E-01
  8.00000000E-01  1.50000000E+00  8.00000000E-01  8.00000000E-01  1.50000000E+00
  8.00000000E-01  8.00000000E-01  1.50000000E+00  8.00000000E-01  8.00000000E-01
  1.50000000E+00  8.00000000E-01  8.00000000E-01  1.50000000E+00  8.00000000E-01
  8.00000000E-01  1.50000000E+00  8.00000000E-01  8.00000000E-01  1.50000000E+00
  8.00000000E-01  8.00000000E-01  1.50000000E+00  8.00000000E-01  8.00000000E-01
  1.50000000E+00  8.00000000E-01  8.00000000E-01  1.50000000E+00  8.00000000E-01
  8.00000000E-01  1.50000000E+00  8.00000000E-01  8.00000000E-01  1.50000000E+00
  8.00000000E-01  8.00000000E-01  1.50000000E+00  8.00000000E-01  8.00000000E-01
  1.50000000E+00  8.00000000E-01  8.00000000E-01  1.50000000E+00  8.00000000E-01
  8.00000000E-01  1.50000000E+00  8.00000000E-01  8.00000000E-01  1.50000000E+00
  8.00000000E-01  8.00000000E-01  1.50000000E+00  8.00000000E-01  8.00000000E-01
  1.50000000E+00  8.00000000E-01  8.00000000E-01  1.50000000E+00  8.00000000E-01
  8.00000000E-01  1.50000000E+00  8.00000000E-01  8.00000000E-01  1.50000000E+00
  8.00000000E-01  8.00000000E-01  1.50000000E+00  8.00000000E-01  8.00000000E-01
  1.50000000E+00  8.00000000E-01  8.00000000E-01  1.50000000E+00  8.00000000E-01
  8.00000000E-01  1.50000000E+00  8.00000000E-01  8.00000000E-01  1.50000000E+00
  8.00000000E-01  8.00000000E-01  1.50000000E+00  8.00000000E-01  8.00000000E-01
  1.50000000E+00  8.00000000E-01  8.00000000E-01  1.50000000E+00  8.00000000E-01
  8.00000000E-01  1.50000000E+00  8.00000000E-01  8.00000000E-01  1.50000000E+00
  8.00000000E-01  8.00000000E-01  1.50000000E+00  8.00000000E-01  8.00000000E-01
  1.50000000E+00  8.00000000E-01  8.00000000E-01  1.50000000E+00  8.00000000E-01
  8.00000000E-01  1.50000000E+00  8.00000000E-01  8.00000000E-01  1.50000000E+00
  8.00000000E-01  8.00000000E-01  1.50000000E+00  8.00000000E-01  8.00000000E-01
  1.50000000E+00  8.00000000E-01  8.00000000E-01  1.50000000E+00  8.00000000E-01
  8.00000000E-01  1.50000000E+00  8.00000000E-01  8.00000000E-01  1.50000000E+00
  8.00000000E-01  8.00000000E-01  1.50000000E+00  8.00000000E-01  8.00000000E-01
  1.50000000E+00  8.00000000E-01  8.00000000E-01  1.50000000E+00  8.00000000E-01
  8.00000000E-01  1.50000000E+00  8.00000000E-01  8.00000000E-01  1.50000000E+00
  8.00000000E-01  8.00000000E-01  1.50000000E+00  8.00000000E-01  8.00000000E-01
  1.50000000E+00  8.00000000E-01  8.00000000E-01  1.50000000E+00  8.00000000E-01
  8.00000000E-01  1.50000000E+00  8.00000000E-01  8.00000000E-01  1.50000000E+00
  8.00000000E-01  8.00000000E-01  1.50000000E+00  8.00000000E-01  8.00000000E-01
  1.50000000E+00  8.00000000E-01  8.00000000E-01  1.50000000E+00  8.00000000E-01
  8.00000000E-01  1.50000000E+00  8.00000000E-01  8.00000000E-01  1.50000000E+00
  8.00000000E-01  8.00000000E-01  1.50000000E+00  8.00000000E-01  8.00000000E-01
  1.50000000E+00  8.00000000E-01  8.00000000E-01  1.50000000E+00  8.00000000E-01
  8.00000000E-01  1.50000000E+00  8.00000000E-01  8.00000000E-01  1.50000000E+00
  8.00000000E-01  8.00000000E-01  1.50000000E+00  8.00000000E-01  8.00000000E-01
  1.50000000E+00  8.00000000E-01  8.00000000E-01  1.50000000E+00  8.00000000E-01
  8.00000000E-01  1.50000000E+00  8.00000000E-01  8.00000000E-01  1.50000000E+00
  8.00000000E-01  8.00000000E-01  1.50000000E+00  8.00000000E-01  8.00000000E-01
  1.50000000E+00  8.00000000E-01  8.00000000E-01  1.50000000E+00  8.00000000E-01
  8.00000000E-01  1.50000000E+00  8.00000000E-01  8.00000000E-01  1.50000000E+00
  8.00000000E-01  8.00000000E-01  1.50000000E+00  8.00000000E-01  8.00000000E-01
  1.50000000E+00  8.00000000E-01  8.00000000E-01  1.50000000E+00  8.00000000E-01
  8.00000000E-01  1.50000000E+00  8.00000000E-01  8.00000000E-01  1.50000000E+00
  8.00000000E-01  8.00000000E-01  1.50000000E+00  8.00000000E-01  8.00000000E-01
  1.50000000E+00  8.00000000E-01  8.00000000E-01  1.50000000E+00  8.00000000E-01
  8.00000000E-01  1.50000000E+00  8.00000000E-01  8.00000000E-01  1.50000000E+00
  8.00000000E-01  8.00000000E-01  1.50000000E+00  8.00000000E-01  8.00000000E-01
  1.50000000E+00  8.00000000E-01  8.00000000E-01  1.50000000E+00  8.00000000E-01
  8.00000000E-01  1.50000000E+00  8.00000000E-01  8.00000000E-01  1.50000000E+00
  8.00000000E-01  8.00000000E-01  1.50000000E+00  8.00000000E-01  8.00000000E-01
  1.50000000E+00  8.00000000E-01  8.00000000E-01  1.50000000E+00  8.00000000E-01
  8.00000000E-01  1.50000000E+00  8.00000000E-01  8.00000000E-01  1.50000000E+00
  8.00000000E-01  8.00000000E-01  1.50000000E+00  8.00000000E-01  8.00000000E-01
  1.50000000E+00  8.00000000E-01  8.00000000E-01  1.50000000E+00  8.00000000E-01
  8.00000000E-01  1.50000000E+00  8.00000000E-01  8.00000000E-01  1.50000000E+00
  8.00000000E-01  8.00000000E-01  1.50000000E+00  8.00000000E-01  8.00000000E-01
  1.50000000E+00  8.00000000E-01  8.00000000E-01  1.50000000E+00  8.00000000E-01
  8.00000000E-01  1.50000000E+00  8.00000000E-01  8.00000000E-01  1.50000000E+00
  8.00000000E-01  8.00000000E-01  1.50000000E+00  8.00000000E-01  8.00000000E-01
  1.50000000E+00  8.00000000E-01  8.00000000E-01  1.50000000E+00  8.00000000E-01
  8.00000000E-01  1.50000000E+00  8.00000000E-01  8.00000000E-01  1.50000000E+00
  8.00000000E-01  8.00000000E-01  1.50000000E+00  8.00000000E-01  8.00000000E-01
  1.50000000E+00  8.00000000E-01  8.00000000E-01  1.50000000E+00  8.00000000E-01
  8.00000000E-01  1.50000000E+00  8.00000000E-01  8.00000000E-01  1.50000000E+00
  8.00000000E-01  8.00000000E-01  1.50000000E+00  8.00000000E-01  8.00000000E-01
  1.50000000E+00  8.00000000E-01  8.00000000E-01  1.50000000E+00  8.00000000E-01
  8.00000000E-01  1.50000000E+00  8.00000000E-01  8.00000000E-01  1.50000000E+00
  8.00000000E-01  8.00000000E-01  1.50000000E+00  8.00000000E-01  8.00000000E-01
  1.50000000E+00  8.00000000E-01  8.00000000E-01  1.50000000E+00  8.00000000E-01
  8.00000000E-01  1.50000000E+00  8.00000000E-01  8.00000000E-01  1.50000000E+00
  8.00000000E-01  8.00000000E-01  1.50000000E+00  8.00000000E-01  8.00000000E-01
  1.50000000E+00  8.00000000E-01  8.00000000E-01  1.50000000E+00  8.00000000E-01
  8.00000000E-01  1.50000000E+00  8.00000000E-01  8.00000000E-01  1.50000000E+00
  8.00000000E-01  8.00000000E-01  1.50000000E+00  8.00000000E-01  8.00000000E-01
  1.50000000E+00  8.00000000E-01  8.00000000E-01  1.50000000E+00  8.00000000E-01
  8.00000000E-01  1.50000000E+00  8.00000000E-01  8.00000000E-01  1.50000000E+00
  8.00000000E-01  8.00000000E-01  1.50000000E+00  8.00000000E-01  8.00000000E-01
  1.50000000E+00  8.00000000E-01  8.00000000E-01  1.50000000E+00  8.00000000E-01
  8.00000000E-01  1.50000000E+00  8.00000000E-01  8.00000000E-01  1.50000000E+00
  8.00000000E-01  8.00000000E-01  1.50000000E+00  8.00000000E-01  8.00000000E-01
  1.50000000E+00  8.00000000E-01  8.00000000E-01  1.50000000E+00  8.00000000E-01
  8.00000000E-01  1.50000000E+00  8.00000000E-01  8.00000000E-01  1.50000000E+00
  8.00000000E-01  8.00000000E-01  1.50000000E+00  8.00000000E-01  8.00000000E-01
  1.50000000E+00  8.00000000E-01  8.00000000E-01  1.50000000E+00  8.00000000E-01
  8.00000000E-01  1.50000000E+00  8.00000000E-01  8.00000000E-01  1.50000000E+00
  8.00000000E-01  8.00000000E-01  1.50000000E+00  8.00000000E-01  8.00000000E-01
  1.50000000E+00  8.00000000E-01  8.00000000E-01  1.50000000E+00  8.00000000E-01
  8.00000000E-01  1.50000000E+00  8.00000000E-01  8.00000000E-01  1.50000000E+00
  8.00000000E-01  8.00000000E-01  1.50000000E+00  8.00000000E-01  8.00000000E-01
  1.50000000E+00  8.00000000E-01  8.00000000E-01  1.50000000E+00  8.00000000E-01
  8.00000000E-01  1.50000000E+00  8.00000000E-01  8.00000000E-01  1.50000000E+00
  8.00000000E-01  8.00000000E-01  1.50000000E+00  8.00000000E-01  8.00000000E-01
  1.50000000E+00  8.00000000E-01  8.00000000E-01  1.50000000E+00  8.00000000E-01
  8.00000000E-01  1.50000000E+00  8.00000000E-01  8.00000000E-01  1.50000000E+00
  8.00000000E-01  8.00000000E-01  1.50000000E+00  8.00000000E-01  8.00000000E-01
  1.50000000E+00  8.00000000E-01  8.00000000E-01  1.50000000E+00  8.00000000E-01
  8.00000000E-01  1.50000000E+00  8.00000000E-01  8.00000000E-01  1.50000000E+00
  8.00000000E-01  8.00000000E-01  1.50000000E+00  8.00000000E-01  8.00000000E-01
  1.50000000E+00  8.00000000E-01  8.00000000E-01  1.50000000E+00  8.00000000E-01
  8.00000000E-01  1.50000000E+00  8.00000000E-01  8.00000000E-01  1.50000000E+00
  8.00000000E-01  8.00000000E-01  1.50000000E+00  8.00000000E-01  8.00000000E-01
  1.50000000E+00  8.00000000E-01  8.00000000E-01  1.50000000E+00  8.00000000E-01
  8.00000000E-01  1.50000000E+00  8.00000000E-01  8.00000000E-01  1.50000000E+00
  8.00000000E-01  8.00000000E-01  1.50000000E+00  8.00000000E-01  8.00000000E-01
  1.50000000E+00  8.00000000E-01  8.00000000E-01  1.50000000E+00  8.00000000E-01
  8.00000000E-01  1.50000000E+00  8.00000000E-01  8.00000000E-01  1.50000000E+00
  8.00000000E-01  8.00000000E-01  1.50000000E+00  8.00000000E-01  8.00000000E-01
  1.50000000E+00  8.00000000E-01  8.00000000E-01  1.50000000E+00  8.00000000E-01
  8.00000000E-01  1.50000000E+00  8.00000000E-01  8.00000000E-01  1.50000000E+00
  8.00000000E-01  8.00000000E-01  1.50000000E+00  8.00000000E-01  8.00000000E-01
  1.50000000E+00  8.00000000E-01  8.00000000E-01  1.50000000E+00  8.00000000E-01
  8.00000000E-01  1.50000000E+00  8.00000000E-01  8.00000000E-01  1.50000000E+00
  8.00000000E-01  8.00000000E-01  1.50000000E+00  8.00000000E-01  8.00000000E-01
  1.50000000E+00  8.00000000E-01  8.00000000E-01  1.50000000E+00  8.00000000E-01
  8.00000000E-01  1.50000000E+00  8.00000000E-01  8.00000000E-01  1.50000000E+00
  8.00000000E-01  8.00000000E-01  1.50000000E+00  8.00000000E-01  8.00000000E-01
  1.50000000E+00  8.00000000E-01  8.00000000E-01  1.50000000E+00  8.00000000E-01
  8.00000000E-01  1.50000000E+00  8.00000000E-01  8.00000000E-01  1.50000000E+00
  8.00000000E-01  8.00000000E-01  1.50000000E+00  8.00000000E-01  8.00000000E-01
  1.50000000E+00  8.00000000E-01  8.00000000E-01  1.50000000E+00  8.00000000E-01
  8.00000000E-01  1.50000000E+00  8.00000000E-01  8.00000000E-01  1.50000000E+00
  8.00000000E-01  8.00000000E-01  1.50000000E+00  8.00000000E-01  8.00000000E-01
  1.50000000E+00  8.00000000E-01  8.00000000E-01  1.50000000E+00  8.00000000E-01
  8.00000000E-01  1.50000000E+00  8.00000000E-01  8.00000000E-01  1.50000000E+00
  8.00000000E-01  8.00000000E-01  1.50000000E+00  8.00000000E-01  8.00000000E-01
  1.50000000E+00  8.00000000E-01  8.00000000E-01  1.50000000E+00  8.00000000E-01
  8.00000000E-01  1.50000000E+00  8.00000000E-01  8.00000000E-01  1.50000000E+00
  8.00000000E-01  8.00000000E-01  1.50000000E+00  8.00000000E-01  8.00000000E-01
  1.50000000E+00  8.00000000E-01  8.00000000E-01  1.50000000E+00  8.00000000E-01
  8.00000000E-01  1.50000000E+00  8.00000000E-01  8.00000000E-01  1.50000000E+00
  8.00000000E-01  8.00000000E-01  1.50000000E+00  8.00000000E-01  8.00000000E-01
  1.50000000E+00  8.00000000E-01  8.00000000E-01  1.50000000E+00  8.00000000E-01
  8.00000000E-01  1.50000000E+00  8.00000000E-01  8.00000000E-01  1.50000000E+00
  8.00000000E-01  8.00000000E-01  1.50000000E+00  8.00000000E-01  8.00000000E-01
  1.50000000E+00  8.00000000E-01  8.00000000E-01  1.50000000E+00  8.00000000E-01
  8.00000000E-01  1.50000000E+00  8.00000000E-01  8.00000000E-01  1.50000000E+00
  8.00000000E-01  8.00000000E-01  1.50000000E+00  8.00000000E-01  8.00000000E-01
  1.50000000E+00  8.00000000E-01  8.00000000E-01  1.50000000E+00  8.00000000E-01
  8.00000000E-01  1.50000000E+00  8.00000000E-01  8.00000000E-01  1.50000000E+00
  8.00000000E-01  8.00000000E-01  1.50000000E+00  8.00000000E-01  8.00000000E-01
  1.50000000E+00  8.00000000E-01  8.00000000E-01  1.50000000E+00  8.00000000E-01
  8.00000000E-01  1.50000000E+00  8.00000000E-01  8.00000000E-01  1.50000000E+00
  8.00000000E-01  8.00000000E-01  1.50000000E+00  8.00000000E-01  8.00000000E-01
  1.50000000E+00  8.00000000E-01  8.00000000E-01  1.50000000E+00  8.00000000E-01
  8.00000000E-01  1.50000000E+00  8.00000000E-01  8.00000000E-01  1.50000000E+00
  8.00000000E-01  8.00000000E-01  1.50000000E+00  8.00000000E-01  8.00000000E-01
  1.50000000E+00  8.00000000E-01  8.00000000E-01  1.50000000E+00  8.00000000E-01
  8.00000000E-01  1.50000000E+00  8.00000000E-01  8.00000000E-01  1.50000000E+00
  8.00000000E-01  8.00000000E-01  1.50000000E+00  8.00000000E-01  8.00000000E-01
  1.50000000E+00  8.00000000E-01  8.00000000E-01  1.50000000E+00  8.00000000E-01
  8.00000000E-01  1.50000000E+00  8.00000000E-01  8.00000000E-01  1.50000000E+00
  8.00000000E-01  8.00000000E-01  1.50000000E+00  8.00000000E-01  8.00000000E-01
  1.50000000E+00  8.00000000E-01  8.00000000E-01  1.50000000E+00  8.00000000E-01
  8.00000000E-01  1.50000000E+00  8.00000000E-01  8.00000000E-01  1.50000000E+00
  8.00000000E-01  8.00000000E-01  1.50000000E+00  8.00000000E-01  8.00000000E-01
  1.50000000E+00  8.00000000E-01  8.00000000E-01  1.50000000E+00  8.00000000E-01
  8.00000000E-01  1.50000000E+00  8.00000000E-01  8.00000000E-01  1.50000000E+00
  8.00000000E-01  8.00000000E-01  1.50000000E+00  8.00000000E-01  8.00000000E-01
  1.50000000E+00  8.00000000E-01  8.00000000E-01  1.50000000E+00  8.00000000E-01
  8.00000000E-01  1.50000000E+00  8.00000000E-01  8.00000000E-01  1.50000000E+00
  8.00000000E-01  8.00000000E-01  1.50000000E+00  8.00000000E-01  8.00000000E-01
  1.50000000E+00  8.00000000E-01  8.00000000E-01  1.50000000E+00  8.00000000E-01
  8.00000000E-01  1.50000000E+00  8.00000000E-01  8.00000000E-01  1.50000000E+00
  8.00000000E-01  8.00000000E-01  1.50000000E+00  8.00000000E-01  8.00000000E-01
  1.50000000E+00  8.00000000E-01  8.00000000E-01  1.50000000E+00  8.00000000E-01
  8.00000000E-01  1.50000000E+00  8.00000000E-01  8.00000000E-01  1.50000000E+00
  8.00000000E-01  8.00000000E-01  1.50000000E+00  8.00000000E-01  8.00000000E-01
  1.50000000E+00  8.00000000E-01  8.00000000E-01  1.50000000E+00  8.00000000E-01
  8.00000000E-01  1.50000000E+00  8.00000000E-01  8.00000000E-01  1.50000000E+00
  8.00000000E-01  8.00000000E-01  1.50000000E+00  8.00000000E-01  8.00000000E-01
  1.50000000E+00  8.00000000E-01  8.00000000E-01  1.50000000E+00  8.00000000E-01
  8.00000000E-01  1.50000000E+00  8.00000000E-01  8.00000000E-01  1.50000000E+00
  8.00000000E-01  8.00000000E-01  1.50000000E+00  8.00000000E-01  8.00000000E-01
  1.50000000E+00  8.00000000E-01  8.00000000E-01  1.50000000E+00  8.00000000E-01
  8.00000000E-01  1.50000000E+00  8.00000000E-01  8.00000000E-01  1.50000000E+00
  8.00000000E-01  8.00000000E-01  1.50000000E+00  8.00000000E-01  8.00000000E-01
  1.50000000E+00  8.00000000E-01  8.00000000E-01  1.50000000E+00  8.00000000E-01
  8.00000000E-01  1.50000000E+00  8.00000000E-01  8.00000000E-01  1.50000000E+00
  8.00000000E-01  8.00000000E-01  1.50000000E+00  8.00000000E-01  8.00000000E-01
  1.50000000E+00  8.00000000E-01  8.00000000E-01  1.50000000E+00  8.00000000E-01
  8.00000000E-01  1.50000000E+00  8.00000000E-01  8.00000000E-01  1.50000000E+00
  8.00000000E-01  8.00000000E-01  1.50000000E+00  8.00000000E-01  8.00000000E-01
  1.50000000E+00  8.00000000E-01  8.00000000E-01  1.50000000E+00  8.00000000E-01
  8.00000000E-01  1.50000000E+00  8.00000000E-01  8.00000000E-01  1.50000000E+00
  8.00000000E-01  8.00000000E-01  1.50000000E+00  8.00000000E-01  8.00000000E-01
  1.50000000E+00  8.00000000E-01  8.00000000E-01  1.50000000E+00  8.00000000E-01
  8.00000000E-01  1.50000000E+00  8.00000000E-01  8.00000000E-01  1.50000000E+00
  8.00000000E-01  8.00000000E-01  1.50000000E+00  8.00000000E-01  8.00000000E-01
  1.50000000E+00  8.00000000E-01  8.00000000E-01  1.50000000E+00  8.00000000E-01
  8.00000000E-01  1.50000000E+00  8.00000000E-01  8.00000000E-01  1.50000000E+00
  8.00000000E-01  8.00000000E-01  1.50000000E+00  8.00000000E-01  8.00000000E-01
  1.50000000E+00  8.00000000E-01  8.00000000E-01  1.50000000E+00  8.00000000E-01
  8.00000000E-01  1.50000000E+00  8.00000000E-01  8.00000000E-01  1.50000000E+00
  8.00000000E-01  8.00000000E-01  1.50000000E+00  8.00000000E-01  8.00000000E-01
  1.50000000E+00  8.00000000E-01  8.00000000E-01  1.50000000E+00  8.00000000E-01
  8.00000000E-01  1.50000000E+00  8.00000000E-01  8.00000000E-01  1.50000000E+00
  8.00000000E-01  8.00000000E-01  1.50000000E+00  8.00000000E-01  8.00000000E-01
  1.50000000E+00  8.00000000E-01  8.00000000E-01  1.50000000E+00  8.00000000E-01
  8.00000000E-01  1.50000000E+00  8.00000000E-01  8.00000000E-01  1.50000000E+00
  8.00000000E-01  8.00000000E-01  1.50000000E+00  8.00000000E-01  8.00000000E-01
  1.50000000E+00  8.00000000E-01  8.00000000E-01  1.50000000E+00  8.00000000E-01
  8.00000000E-01  1.50000000E+00  8.00000000E-01  8.00000000E-01  1.50000000E+00
  8.00000000E-01  8.00000000E-01  1.50000000E+00  8.00000000E-01  8.00000000E-01
  1.50000000E+00  8.00000000E-01  8.00000000E-01  1.50000000E+00  8.00000000E-01
  8.00000000E-01  1.50000000E+00  8.00000000E-01  8.00000000E-01  1.50000000E+00
  8.00000000E-01  8.00000000E-01  1.50000000E+00  8.00000000E-01  8.00000000E-01
  1.50000000E+00  8.00000000E-01  8.00000000E-01  1.50000000E+00  8.00000000E-01
  8.00000000E-01  1.50000000E+00  8.00000000E-01  8.00000000E-01  1.50000000E+00
  8.00000000E-01  8.00000000E-01  1.50000000E+00  8.00000000E-01  8.00000000E-01
  1.50000000E+00  8.00000000E-01  8.00000000E-01  1.50000000E+00  8.00000000E-01
  8.00000000E-01  1.50000000E+00  8.00000000E-01  8.00000000E-01  1.50000000E+00
  8.00000000E-01  8.00000000E-01  1.50000000E+00  8.00000000E-01  8.00000000E-01
  1.50000000E+00  8.00000000E-01  8.00000000E-01  1.50000000E+00  8.00000000E-01
  8.00000000E-01  1.50000000E+00  8.00000000E-01  8.00000000E-01  1.50000000E+00
  8.00000000E-01  8.00000000E-01  1.50000000E+00  8.00000000E-01  8.00000000E-01
  1.50000000E+00  8.00000000E-01  8.00000000E-01  1.50000000E+00  8.00000000E-01
  8.00000000E-01  1.50000000E+00  8.00000000E-01  8.00000000E-01  1.50000000E+00
  8.00000000E-01  8.00000000E-01  1.50000000E+00  8.00000000E-01  8.00000000E-01
  1.50000000E+00  8.00000000E-01  8.00000000E-01  1.50000000E+00  8.00000000E-01
  8.00000000E-01  1.50000000E+00  8.00000000E-01  8.00000000E-01  1.50000000E+00
  8.00000000E-01  8.00000000E-01  1.50000000E+00  8.00000000E-01  8.00000000E-01
  1.50000000E+00  8.00000000E-01  8.00000000E-01  1.50000000E+00  8.00000000E-01
  8.00000000E-01  1.50000000E+00  8.00000000E-01  8.00000000E-01  1.50000000E+00
  8.00000000E-01  8.00000000E-01  1.50000000E+00  8.00000000E-01  8.00000000E-01
  1.50000000E+00  8.00000000E-01  8.00000000E-01  1.50000000E+00  8.00000000E-01
  8.00000000E-01  1.50000000E+00  8.00000000E-01  8.00000000E-01  1.50000000E+00
  8.00000000E-01  8.00000000E-01  1.50000000E+00  8.00000000E-01  8.00000000E-01
  1.50000000E+00  8.00000000E-01  8.00000000E-01  1.50000000E+00  8.00000000E-01
  8.00000000E-01  1.50000000E+00  8.00000000E-01  8.00000000E-01  1.50000000E+00
  8.00000000E-01  8.00000000E-01  1.50000000E+00  8.00000000E-01  8.00000000E-01
  1.50000000E+00  8.00000000E-01  8.00000000E-01  1.50000000E+00  8.00000000E-01
  8.00000000E-01  1.50000000E+00  8.00000000E-01  8.00000000E-01  1.50000000E+00
  8.00000000E-01  8.00000000E-01  1.50000000E+00  8.00000000E-01  8.00000000E-01
  1.50000000E+00  8.00000000E-01  8.00000000E-01  1.50000000E+00  8.00000000E-01
  8.00000000E-01  1.50000000E+00  8.00000000E-01  8.00000000E-01  1.50000000E+00
  8.00000000E-01  8.00000000E-01  1.50000000E+00  8.00000000E-01  8.00000000E-01
  1.50000000E+00  8.00000000E-01  8.00000000E-01  1.50000000E+00  8.00000000E-01
  8.00000000E-01  1.50000000E+00  8.00000000E-01  8.00000000E-01  1.50000000E+00
  8.00000000E-01  8.00000000E-01  1.50000000E+00  8.00000000E-01  8.00000000E-01
  1.50000000E+00  8.00000000E-01  8.00000000E-01  1.50000000E+00  8.00000000E-01
  8.00000000E-01  1.50000000E+00  8.00000000E-01  8.00000000E-01  1.50000000E+00
  8.00000000E-01  8.00000000E-01  1.50000000E+00  8.00000000E-01  8.00000000E-01
  1.50000000E+00  8.00000000E-01  8.00000000E-01  1.50000000E+00  8.00000000E-01
  8.00000000E-01  1.50000000E+00  8.00000000E-01  8.00000000E-01  1.50000000E+00
  8.00000000E-01  8.00000000E-01  1.50000000E+00  8.00000000E-01  8.00000000E-01
  1.50000000E+00  8.00000000E-01  8.00000000E-01  1.50000000E+00  8.00000000E-01
  8.00000000E-01  1.50000000E+00  8.00000000E-01  8.00000000E-01  1.50000000E+00
  8.00000000E-01  8.00000000E-01  1.50000000E+00  8.00000000E-01  8.00000000E-01
  1.50000000E+00  8.00000000E-01  8.00000000E-01  1.50000000E+00  8.00000000E-01
  8.00000000E-01  1.50000000E+00  8.00000000E-01  8.00000000E-01  1.50000000E+00
  8.00000000E-01  8.00000000E-01  1.50000000E+00  8.00000000E-01  8.00000000E-01
  1.50000000E+00  8.00000000E-01  8.00000000E-01  1.50000000E+00  8.00000000E-01
  8.00000000E-01  1.50000000E+00  8.00000000E-01  8.00000000E-01  1.50000000E+00
  8.00000000E-01  8.00000000E-01  1.50000000E+00  8.00000000E-01  8.00000000E-01
  1.50000000E+00  8.00000000E-01  8.00000000E-01  1.50000000E+00  8.00000000E-01
  8.00000000E-01  1.50000000E+00  8.00000000E-01  8.00000000E-01  1.50000000E+00
  8.00000000E-01  8.00000000E-01  1.50000000E+00  8.00000000E-01  8.00000000E-01
  1.50000000E+00  8.00000000E-01  8.00000000E-01  1.50000000E+00  8.00000000E-01
  8.00000000E-01  1.50000000E+00  8.00000000E-01  8.00000000E-01  1.50000000E+00
  8.00000000E-01  8.00000000E-01  1.50000000E+00  8.00000000E-01  8.00000000E-01
  1.50000000E+00  8.00000000E-01  8.00000000E-01  1.50000000E+00  8.00000000E-01
  8.00000000E-01  1.50000000E+00  8.00000000E-01  8.00000000E-01  1.50000000E+00
  8.00000000E-01  8.00000000E-01  1.50000000E+00  8.00000000E-01  8.00000000E-01
  1.50000000E+00  8.00000000E-01  8.00000000E-01  1.50000000E+00  8.00000000E-01
  8.00000000E-01  1.50000000E+00  8.00000000E-01  8.00000000E-01  1.50000000E+00
  8.00000000E-01  8.00000000E-01  1.50000000E+00  8.00000000E-01  8.00000000E-01
  1.50000000E+00  8.00000000E-01  8.00000000E-01  1.50000000E+00  8.00000000E-01
  8.00000000E-01  1.50000000E+00  8.00000000E-01  8.00000000E-01  1.50000000E+00
  8.00000000E-01  8.00000000E-01  1.50000000E+00  8.00000000E-01  8.00000000E-01
  1.50000000E+00  8.00000000E-01  8.00000000E-01  1.50000000E+00  8.00000000E-01
  8.00000000E-01  1.50000000E+00  8.00000000E-01  8.00000000E-01  1.50000000E+00
  8.00000000E-01  8.00000000E-01  1.50000000E+00  8.00000000E-01  8.00000000E-01
  1.50000000E+00  8.00000000E-01  8.00000000E-01  1.50000000E+00  8.00000000E-01
  8.00000000E-01  1.50000000E+00  8.00000000E-01  8.00000000E-01  1.50000000E+00
  8.00000000E-01  8.00000000E-01  1.50000000E+00  8.00000000E-01  8.00000000E-01
  1.50000000E+00  8.00000000E-01  8.00000000E-01  1.50000000E+00  8.00000000E-01
  8.00000000E-01  1.50000000E+00  8.00000000E-01  8.00000000E-01  1.50000000E+00
  8.00000000E-01  8.00000000E-01  1.50000000E+00  8.00000000E-01  8.00000000E-01
  1.50000000E+00  8.00000000E-01  8.00000000E-01  1.50000000E+00  8.00000000E-01
  8.00000000E-01  1.50000000E+00  8.00000000E-01  8.00000000E-01  1.50000000E+00
  8.00000000E-01  8.00000000E-01  1.50000000E+00  8.00000000E-01  8.00000000E-01
  1.50000000E+00  8.00000000E-01  8.00000000E-01  1.50000000E+00  8.00000000E-01
  8.00000000E-01  1.50000000E+00  8.00000000E-01  8.00000000E-01  1.50000000E+00
  8.00000000E-01  8.00000000E-01  1.50000000E+00  8.00000000E-01  8.00000000E-01
  1.50000000E+00  8.00000000E-01  8.00000000E-01  1.50000000E+00  8.00000000E-01
  8.00000000E-01  1.50000000E+00  8.00000000E-01  8.00000000E-01  1.50000000E+00
  8.00000000E-01  8.00000000E-01  1.50000000E+00  8.00000000E-01  8.00000000E-01
  1.50000000E+00  8.00000000E-01  8.00000000E-01  1.50000000E+00  8.00000000E-01
  8.00000000E-01  1.50000000E+00  8.00000000E-01  8.00000000E-01  1.50000000E+00
  8.00000000E-01  8.00000000E-01  1.50000000E+00  8.00000000E-01  8.00000000E-01
  1.50000000E+00  8.00000000E-01  8.00000000E-01  1.50000000E+00  8.00000000E-01
  8.00000000E-01  1.50000000E+00  8.00000000E-01  8.00000000E-01  1.50000000E+00
  8.00000000E-01  8.00000000E-01  1.50000000E+00  8.00000000E-01  8.00000000E-01
  1.50000000E+00  8.00000000E-01  8.00000000E-01  1.50000000E+00  8.00000000E-01
  8.00000000E-01  1.50000000E+00  8.00000000E-01  8.00000000E-01  1.50000000E+00
  8.00000000E-01  8.00000000E-01  1.50000000E+00  8.00000000E-01  8.00000000E-01
  1.50000000E+00  8.00000000E-01  8.00000000E-01  1.50000000E+00  8.00000000E-01
  8.00000000E-01  1.50000000E+00  8.00000000E-01  8.00000000E-01  1.50000000E+00
  8.00000000E-01  8.00000000E-01  1.50000000E+00  8.00000000E-01  8.00000000E-01
  1.50000000E+00  8.00000000E-01  8.00000000E-01  1.50000000E+00  8.00000000E-01
  8.00000000E-01  1.50000000E+00  8.00000000E-01  8.00000000E-01  1.50000000E+00
  8.00000000E-01  8.00000000E-01  1.50000000E+00  8.00000000E-01  8.00000000E-01
  1.50000000E+00  8.00000000E-01  8.00000000E-01  1.50000000E+00  8.00000000E-01
  8.00000000E-01  1.50000000E+00  8.00000000E-01  8.00000000E-01  1.50000000E+00
  8.00000000E-01  8.00000000E-01  1.50000000E+00  8.00000000E-01  8.00000000E-01
  1.50000000E+00  8.00000000E-01  8.00000000E-01  1.50000000E+00  8.00000000E-01
  8.00000000E-01  1.50000000E+00  8.00000000E-01  8.00000000E-01  1.50000000E+00
  8.00000000E-01  8.00000000E-01  1.50000000E+00  8.00000000E-01  8.00000000E-01
  1.50000000E+00  8.00000000E-01  8.00000000E-01  1.50000000E+00  8.00000000E-01
  8.00000000E-01  1.50000000E+00  8.00000000E-01  8.00000000E-01  1.50000000E+00
  8.00000000E-01  8.00000000E-01  1.50000000E+00  8.00000000E-01  8.00000000E-01
  1.50000000E+00  8.00000000E-01  8.00000000E-01  1.50000000E+00  8.00000000E-01
  8.00000000E-01  1.50000000E+00  8.00000000E-01  8.00000000E-01  1.50000000E+00
  8.00000000E-01  8.00000000E-01  1.50000000E+00  8.00000000E-01  8.00000000E-01
  1.50000000E+00  8.00000000E-01  8.00000000E-01  1.50000000E+00  8.00000000E-01
  8.00000000E-01  1.50000000E+00  8.00000000E-01  8.00000000E-01  1.50000000E+00
  8.00000000E-01  8.00000000E-01  1.50000000E+00  8.00000000E-01  8.00000000E-01
  1.50000000E+00  8.00000000E-01  8.00000000E-01  1.50000000E+00  8.00000000E-01
  8.00000000E-01  1.50000000E+00  8.00000000E-01  8.00000000E-01  1.50000000E+00
  8.00000000E-01  8.00000000E-01  1.50000000E+00  8.00000000E-01  8.00000000E-01
  1.50000000E+00  8.00000000E-01  8.00000000E-01  1.50000000E+00  8.00000000E-01
  8.00000000E-01  1.50000000E+00  8.00000000E-01  8.00000000E-01  1.50000000E+00
  8.00000000E-01  8.00000000E-01  1.50000000E+00  8.00000000E-01  8.00000000E-01
  1.50000000E+00  8.00000000E-01  8.00000000E-01  1.50000000E+00  8.00000000E-01
  8.00000000E-01  1.50000000E+00  8.00000000E-01  8.00000000E-01  1.50000000E+00
  8.00000000E-01  8.00000000E-01  1.50000000E+00  8.00000000E-01  8.00000000E-01
  1.50000000E+00  8.00000000E-01  8.00000000E-01  1.50000000E+00  8.00000000E-01
  8.00000000E-01  1.50000000E+00  8.00000000E-01  8.00000000E-01  1.50000000E+00
  8.00000000E-01  8.00000000E-01  1.50000000E+00  8.00000000E-01  8.00000000E-01
  1.50000000E+00  8.00000000E-01  8.00000000E-01  1.50000000E+00  8.00000000E-01
  8.00000000E-01  1.50000000E+00  8.00000000E-01  8.00000000E-01  1.50000000E+00
  8.00000000E-01  8.00000000E-01  1.50000000E+00  8.00000000E-01  8.00000000E-01
  1.50000000E+00  8.00000000E-01  8.00000000E-01  1.50000000E+00  8.00000000E-01
  8.00000000E-01  1.50000000E+00  8.00000000E-01  8.00000000E-01  1.50000000E+00
  8.00000000E-01  8.00000000E-01  1.50000000E+00  8.00000000E-01  8.00000000E-01
  1.50000000E+00  8.00000000E-01  8.00000000E-01  1.50000000E+00  8.00000000E-01
  8.00000000E-01  1.50000000E+00  8.00000000E-01  8.00000000E-01  1.50000000E+00
  8.00000000E-01  8.00000000E-01  1.50000000E+00  8.00000000E-01  8.00000000E-01
  1.50000000E+00  8.00000000E-01  8.00000000E-01  1.50000000E+00  8.00000000E-01
  8.00000000E-01  1.50000000E+00  8.00000000E-01  8.00000000E-01  1.50000000E+00
  8.00000000E-01  8.00000000E-01  1.50000000E+00  8.00000000E-01  8.00000000E-01
  1.50000000E+00  8.00000000E-01  8.00000000E-01  1.50000000E+00  8.00000000E-01
  8.00000000E-01  1.50000000E+00  8.00000000E-01  8.00000000E-01  1.50000000E+00
  8.00000000E-01  8.00000000E-01  1.50000000E+00  8.00000000E-01  8.00000000E-01
  1.50000000E+00  8.00000000E-01  8.00000000E-01  1.50000000E+00  8.00000000E-01
  8.00000000E-01  1.50000000E+00  8.00000000E-01  8.00000000E-01  1.50000000E+00
  8.00000000E-01  8.00000000E-01  1.50000000E+00  8.00000000E-01  8.00000000E-01
  1.50000000E+00  8.00000000E-01  8.00000000E-01  1.50000000E+00  8.00000000E-01
  8.00000000E-01  1.50000000E+00  8.00000000E-01  8.00000000E-01  1.50000000E+00
  8.00000000E-01  8.00000000E-01  1.50000000E+00  8.00000000E-01  8.00000000E-01
  1.50000000E+00  8.00000000E-01  8.00000000E-01  1.50000000E+00  8.00000000E-01
  8.00000000E-01  1.50000000E+00  8.00000000E-01  8.00000000E-01  1.50000000E+00
  8.00000000E-01  8.00000000E-01  1.50000000E+00  8.00000000E-01  8.00000000E-01
  1.50000000E+00  8.00000000E-01  8.00000000E-01  1.50000000E+00  8.00000000E-01
  8.00000000E-01  1.50000000E+00  8.00000000E-01  8.00000000E-01  1.50000000E+00
  8.00000000E-01  8.00000000E-01  1.50000000E+00  8.00000000E-01  8.00000000E-01
  1.50000000E+00  8.00000000E-01  8.00000000E-01  1.50000000E+00  8.00000000E-01
  8.00000000E-01  1.50000000E+00  8.00000000E-01  8.00000000E-01  1.50000000E+00
  8.00000000E-01  8.00000000E-01  1.50000000E+00  8.00000000E-01  8.00000000E-01
  1.50000000E+00  8.00000000E-01  8.00000000E-01  1.50000000E+00  8.00000000E-01
  8.00000000E-01  1.50000000E+00  8.00000000E-01  8.00000000E-01  1.50000000E+00
  8.00000000E-01  8.00000000E-01  1.50000000E+00  8.00000000E-01  8.00000000E-01
  1.50000000E+00  8.00000000E-01  8.00000000E-01  1.50000000E+00  8.00000000E-01
  8.00000000E-01  1.50000000E+00  8.00000000E-01  8.00000000E-01  1.50000000E+00
  8.00000000E-01  8.00000000E-01  1.50000000E+00  8.00000000E-01  8.00000000E-01
  1.50000000E+00  8.00000000E-01  8.00000000E-01  1.50000000E+00  8.00000000E-01
  8.00000000E-01  1.50000000E+00  8.00000000E-01  8.00000000E-01  1.50000000E+00
  8.00000000E-01  8.00000000E-01  1.50000000E+00  8.00000000E-01  8.00000000E-01
  1.50000000E+00  8.00000000E-01  8.00000000E-01  1.50000000E+00  8.00000000E-01
  8.00000000E-01  1.50000000E+00  8.00000000E-01  8.00000000E-01  1.50000000E+00
  8.00000000E-01  8.00000000E-01  1.50000000E+00  8.00000000E-01  8.00000000E-01
  1.50000000E+00  8.00000000E-01  8.00000000E-01  1.50000000E+00  8.00000000E-01
  8.00000000E-01  1.50000000E+00  8.00000000E-01  8.00000000E-01  1.50000000E+00
  8.00000000E-01  8.00000000E-01  1.50000000E+00  8.00000000E-01  8.00000000E-01
  1.50000000E+00  8.00000000E-01  8.00000000E-01  1.50000000E+00  8.00000000E-01
  8.00000000E-01  1.50000000E+00  8.00000000E-01  8.00000000E-01  1.50000000E+00
  8.00000000E-01  8.00000000E-01  1.50000000E+00  8.00000000E-01  8.00000000E-01
  1.50000000E+00  8.00000000E-01  8.00000000E-01  1.50000000E+00  8.00000000E-01
  8.00000000E-01  1.50000000E+00  8.00000000E-01  8.00000000E-01  1.50000000E+00
  8.00000000E-01  8.00000000E-01  1.50000000E+00  8.00000000E-01  8.00000000E-01
  1.50000000E+00  8.00000000E-01  8.00000000E-01  1.50000000E+00  8.00000000E-01
  8.00000000E-01  1.50000000E+00  8.00000000E-01  8.00000000E-01  1.50000000E+00
  8.00000000E-01  8.00000000E-01  1.50000000E+00  8.00000000E-01  8.00000000E-01
  1.50000000E+00  8.00000000E-01  8.00000000E-01  1.50000000E+00  8.00000000E-01
  8.00000000E-01  1.50000000E+00  8.00000000E-01  8.00000000E-01  1.50000000E+00
  8.00000000E-01  8.00000000E-01  1.50000000E+00  8.00000000E-01  8.00000000E-01
  1.50000000E+00  8.00000000E-01  8.00000000E-01  1.50000000E+00  8.00000000E-01
  8.00000000E-01  1.50000000E+00  8.00000000E-01  8.00000000E-01  1.50000000E+00
  8.00000000E-01  8.00000000E-01  1.50000000E+00  8.00000000E-01  8.00000000E-01
  1.50000000E+00  8.00000000E-01  8.00000000E-01  1.50000000E+00  8.00000000E-01
  8.00000000E-01  1.50000000E+00  8.00000000E-01  8.00000000E-01  1.50000000E+00
  8.00000000E-01  8.00000000E-01  1.50000000E+00  8.00000000E-01  8.00000000E-01
  1.50000000E+00  8.00000000E-01  8.00000000E-01  1.50000000E+00  8.00000000E-01
  8.00000000E-01  1.50000000E+00  8.00000000E-01  8.00000000E-01  1.50000000E+00
  8.00000000E-01  8.00000000E-01  1.50000000E+00  8.00000000E-01  8.00000000E-01
  1.50000000E+00  8.00000000E-01  8.00000000E-01  1.50000000E+00  8.00000000E-01
  8.00000000E-01  1.50000000E+00  8.00000000E-01  8.00000000E-01  1.50000000E+00
  8.00000000E-01  8.00000000E-01  1.50000000E+00  8.00000000E-01  8.00000000E-01
  1.50000000E+00  8.00000000E-01  8.00000000E-01  1.50000000E+00  8.00000000E-01
  8.00000000E-01  1.50000000E+00  8.00000000E-01  8.00000000E-01  1.50000000E+00
  8.00000000E-01  8.00000000E-01  1.50000000E+00  8.00000000E-01  8.00000000E-01
  1.50000000E+00  8.00000000E-01  8.00000000E-01  1.50000000E+00  8.00000000E-01
  8.00000000E-01  1.50000000E+00  8.00000000E-01  8.00000000E-01  1.50000000E+00
  8.00000000E-01  8.00000000E-01  1.50000000E+00  8.00000000E-01  8.00000000E-01
  1.50000000E+00  8.00000000E-01  8.00000000E-01  1.50000000E+00  8.00000000E-01
  8.00000000E-01  1.50000000E+00  8.00000000E-01  8.00000000E-01  1.50000000E+00
  8.00000000E-01  8.00000000E-01  1.50000000E+00  8.00000000E-01  8.00000000E-01
  1.50000000E+00  8.00000000E-01  8.00000000E-01  1.50000000E+00  8.00000000E-01
  8.00000000E-01  1.50000000E+00  8.00000000E-01  8.00000000E-01  1.50000000E+00
  8.00000000E-01  8.00000000E-01  1.50000000E+00  8.00000000E-01  8.00000000E-01
  1.50000000E+00  8.00000000E-01  8.00000000E-01  1.50000000E+00  8.00000000E-01
  8.00000000E-01  1.50000000E+00  8.00000000E-01  8.00000000E-01  1.50000000E+00
  8.00000000E-01  8.00000000E-01  1.50000000E+00  8.00000000E-01  8.00000000E-01
  1.50000000E+00  8.00000000E-01  8.00000000E-01  1.50000000E+00  8.00000000E-01
  8.00000000E-01  1.50000000E+00  8.00000000E-01  8.00000000E-01  1.50000000E+00
  8.00000000E-01  8.00000000E-01  1.50000000E+00  8.00000000E-01  8.00000000E-01
  1.50000000E+00  8.00000000E-01  8.00000000E-01  1.50000000E+00  8.00000000E-01
  8.00000000E-01  1.50000000E+00  8.00000000E-01  8.00000000E-01  1.50000000E+00
  8.00000000E-01  8.00000000E-01  1.50000000E+00  8.00000000E-01  8.00000000E-01
  1.50000000E+00  8.00000000E-01  8.00000000E-01  1.50000000E+00  8.00000000E-01
  8.00000000E-01  1.50000000E+00  8.00000000E-01  8.00000000E-01  1.50000000E+00
  8.00000000E-01  8.00000000E-01  1.50000000E+00  8.00000000E-01  8.00000000E-01
  1.50000000E+00  8.00000000E-01  8.00000000E-01  1.50000000E+00  8.00000000E-01
  8.00000000E-01  1.50000000E+00  8.00000000E-01  8.00000000E-01  1.50000000E+00
  8.00000000E-01  8.00000000E-01  1.50000000E+00  8.00000000E-01  8.00000000E-01
  1.50000000E+00  8.00000000E-01  8.00000000E-01  1.50000000E+00  8.00000000E-01
  8.00000000E-01  1.50000000E+00  8.00000000E-01  8.00000000E-01  1.50000000E+00
  8.00000000E-01  8.00000000E-01  1.50000000E+00  8.00000000E-01  8.00000000E-01
  1.50000000E+00  8.00000000E-01  8.00000000E-01  1.50000000E+00  8.00000000E-01
  8.00000000E-01  1.50000000E+00  8.00000000E-01  8.00000000E-01  1.50000000E+00
  8.00000000E-01  8.00000000E-01  1.50000000E+00  8.00000000E-01  8.00000000E-01
  1.50000000E+00  8.00000000E-01  8.00000000E-01  1.50000000E+00  8.00000000E-01
  8.00000000E-01  1.50000000E+00  8.00000000E-01  8.00000000E-01  1.50000000E+00
  8.00000000E-01  8.00000000E-01  1.50000000E+00  8.00000000E-01  8.00000000E-01
  1.50000000E+00  8.00000000E-01  8.00000000E-01  1.50000000E+00  8.00000000E-01
  8.00000000E-01  1.50000000E+00  8.00000000E-01  8.00000000E-01  1.50000000E+00
  8.00000000E-01  8.00000000E-01  1.50000000E+00  8.00000000E-01  8.00000000E-01
  1.50000000E+00  8.00000000E-01  8.00000000E-01  1.50000000E+00  8.00000000E-01
  8.00000000E-01  1.50000000E+00  8.00000000E-01  8.00000000E-01  1.50000000E+00
  8.00000000E-01  8.00000000E-01  1.50000000E+00  8.00000000E-01  8.00000000E-01
  1.50000000E+00  8.00000000E-01  8.00000000E-01  1.50000000E+00  8.00000000E-01
  8.00000000E-01  1.50000000E+00  8.00000000E-01  8.00000000E-01  1.50000000E+00
  8.00000000E-01  8.00000000E-01  1.50000000E+00  8.00000000E-01  8.00000000E-01
  1.50000000E+00  8.00000000E-01  8.00000000E-01  1.50000000E+00  8.00000000E-01
  8.00000000E-01  1.50000000E+00  8.00000000E-01  8.00000000E-01  1.50000000E+00
  8.00000000E-01  8.00000000E-01  1.50000000E+00  8.00000000E-01  8.00000000E-01
  1.50000000E+00  8.00000000E-01  8.00000000E-01  1.50000000E+00  8.00000000E-01
  8.00000000E-01  1.50000000E+00  8.00000000E-01  8.00000000E-01  1.50000000E+00
  8.00000000E-01  8.00000000E-01  1.50000000E+00  8.00000000E-01  8.00000000E-01
  1.50000000E+00  8.00000000E-01  8.00000000E-01  1.50000000E+00  8.00000000E-01
  8.00000000E-01  1.50000000E+00  8.00000000E-01  8.00000000E-01  1.50000000E+00
  8.00000000E-01  8.00000000E-01  1.50000000E+00  8.00000000E-01  8.00000000E-01
  1.50000000E+00  8.00000000E-01  8.00000000E-01  1.50000000E+00  8.00000000E-01
  8.00000000E-01  1.50000000E+00  8.00000000E-01  8.00000000E-01  1.50000000E+00
  8.00000000E-01  8.00000000E-01  1.50000000E+00  8.00000000E-01  8.00000000E-01
  1.50000000E+00  8.00000000E-01  8.00000000E-01  1.50000000E+00  8.00000000E-01
  8.00000000E-01  1.50000000E+00  8.00000000E-01  8.00000000E-01  1.50000000E+00
  8.00000000E-01  8.00000000E-01  1.50000000E+00  8.00000000E-01  8.00000000E-01
  1.50000000E+00  8.00000000E-01  8.00000000E-01  1.50000000E+00  8.00000000E-01
  8.00000000E-01  1.50000000E+00  8.00000000E-01  8.00000000E-01  1.50000000E+00
  8.00000000E-01  8.00000000E-01  1.50000000E+00  8.00000000E-01  8.00000000E-01
  1.50000000E+00  8.00000000E-01  8.00000000E-01  1.50000000E+00  8.00000000E-01
  8.00000000E-01  1.50000000E+00  8.00000000E-01  8.00000000E-01  1.50000000E+00
  8.00000000E-01  8.00000000E-01  1.50000000E+00  8.00000000E-01  8.00000000E-01
  1.50000000E+00  8.00000000E-01  8.00000000E-01  1.50000000E+00  8.00000000E-01
  8.00000000E-01  1.50000000E+00  8.00000000E-01  8.00000000E-01  1.50000000E+00
  8.00000000E-01  8.00000000E-01  1.50000000E+00  8.00000000E-01  8.00000000E-01
  1.50000000E+00  8.00000000E-01  8.00000000E-01  1.50000000E+00  8.00000000E-01
  8.00000000E-01  1.50000000E+00  8.00000000E-01  8.00000000E-01  1.50000000E+00
  8.00000000E-01  8.00000000E-01  1.50000000E+00  8.00000000E-01  8.00000000E-01
  1.50000000E+00  8.00000000E-01  8.00000000E-01  1.50000000E+00  8.00000000E-01
  8.00000000E-01  1.50000000E+00  8.00000000E-01  8.00000000E-01  1.50000000E+00
  8.00000000E-01  8.00000000E-01  1.50000000E+00  8.00000000E-01  8.00000000E-01
  1.50000000E+00  8.00000000E-01  8.00000000E-01  1.50000000E+00  8.00000000E-01
  8.00000000E-01  1.50000000E+00  8.00000000E-01  8.00000000E-01  1.50000000E+00
  8.00000000E-01  8.00000000E-01  1.50000000E+00  8.00000000E-01  8.00000000E-01
  1.50000000E+00  8.00000000E-01  8.00000000E-01  1.50000000E+00  8.00000000E-01
  8.00000000E-01  1.50000000E+00  8.00000000E-01  8.00000000E-01  1.50000000E+00
  8.00000000E-01  8.00000000E-01  1.50000000E+00  8.00000000E-01  8.00000000E-01
  1.50000000E+00  8.00000000E-01  8.00000000E-01  1.50000000E+00  8.00000000E-01
  8.00000000E-01  1.50000000E+00  8.00000000E-01  8.00000000E-01  1.50000000E+00
  8.00000000E-01  8.00000000E-01  1.50000000E+00  8.00000000E-01  8.00000000E-01
  1.50000000E+00  8.00000000E-01  8.00000000E-01  1.50000000E+00  8.00000000E-01
  8.00000000E-01  1.50000000E+00  8.00000000E-01  8.00000000E-01  1.50000000E+00
  8.00000000E-01  8.00000000E-01  1.50000000E+00  8.00000000E-01  8.00000000E-01
  1.50000000E+00  8.00000000E-01  8.00000000E-01  1.50000000E+00  8.00000000E-01
  8.00000000E-01  1.50000000E+00  8.00000000E-01  8.00000000E-01  1.50000000E+00
  8.00000000E-01  8.00000000E-01  1.50000000E+00  8.00000000E-01  8.00000000E-01
  1.50000000E+00  8.00000000E-01  8.00000000E-01  1.50000000E+00  8.00000000E-01
  8.00000000E-01  1.50000000E+00  8.00000000E-01  8.00000000E-01  1.50000000E+00
  8.00000000E-01  8.00000000E-01  1.50000000E+00  8.00000000E-01  8.00000000E-01
  1.50000000E+00  8.00000000E-01  8.00000000E-01  1.50000000E+00  8.00000000E-01
  8.00000000E-01  1.50000000E+00  8.00000000E-01  8.00000000E-01  1.50000000E+00
  8.00000000E-01  8.00000000E-01  1.50000000E+00  8.00000000E-01  8.00000000E-01
  1.50000000E+00  8.00000000E-01  8.00000000E-01  1.50000000E+00  8.00000000E-01
  8.00000000E-01  1.50000000E+00  8.00000000E-01  8.00000000E-01  1.50000000E+00
  8.00000000E-01  8.00000000E-01  1.50000000E+00  8.00000000E-01  8.00000000E-01
  1.50000000E+00  8.00000000E-01  8.00000000E-01  1.50000000E+00  8.00000000E-01
  8.00000000E-01  1.50000000E+00  8.00000000E-01  8.00000000E-01  1.50000000E+00
  8.00000000E-01  8.00000000E-01  1.50000000E+00  8.00000000E-01  8.00000000E-01
  1.50000000E+00  8.00000000E-01  8.00000000E-01  1.50000000E+00  8.00000000E-01
  8.00000000E-01  1.50000000E+00  8.00000000E-01  8.00000000E-01  1.50000000E+00
  8.00000000E-01  8.00000000E-01  1.50000000E+00  8.00000000E-01  8.00000000E-01
  1.50000000E+00  8.00000000E-01  8.00000000E-01  1.50000000E+00  8.00000000E-01
  8.00000000E-01  1.50000000E+00  8.00000000E-01  8.00000000E-01  1.50000000E+00
  8.00000000E-01  8.00000000E-01  1.50000000E+00  8.00000000E-01  8.00000000E-01
  1.50000000E+00  8.00000000E-01  8.00000000E-01  1.50000000E+00  8.00000000E-01
  8.00000000E-01  1.50000000E+00  8.00000000E-01  8.00000000E-01  1.50000000E+00
  8.00000000E-01  8.00000000E-01  1.50000000E+00  8.00000000E-01  8.00000000E-01
  1.50000000E+00  8.00000000E-01  8.00000000E-01  1.50000000E+00  8.00000000E-01
  8.00000000E-01  1.50000000E+00  8.00000000E-01  8.00000000E-01  1.50000000E+00
  8.00000000E-01  8.00000000E-01  1.50000000E+00  8.00000000E-01  8.00000000E-01
  1.50000000E+00  8.00000000E-01  8.00000000E-01  1.50000000E+00  8.00000000E-01
  8.00000000E-01  1.50000000E+00  8.00000000E-01  8.00000000E-01  1.50000000E+00
  8.00000000E-01  8.00000000E-01  1.50000000E+00  8.00000000E-01  8.00000000E-01
  1.50000000E+00  8.00000000E-01  8.00000000E-01  1.50000000E+00  8.00000000E-01
  8.00000000E-01  1.50000000E+00  8.00000000E-01  8.00000000E-01  1.50000000E+00
  8.00000000E-01  8.00000000E-01  1.50000000E+00  8.00000000E-01  8.00000000E-01
  1.50000000E+00  8.00000000E-01  8.00000000E-01  1.50000000E+00  8.00000000E-01
  8.00000000E-01  1.50000000E+00  8.00000000E-01  8.00000000E-01  1.50000000E+00
  8.00000000E-01  8.00000000E-01  1.50000000E+00  8.00000000E-01  8.00000000E-01
  1.50000000E+00  8.00000000E-01  8.00000000E-01  1.50000000E+00  8.00000000E-01
  8.00000000E-01  1.50000000E+00  8.00000000E-01  8.00000000E-01  1.50000000E+00
  8.00000000E-01  8.00000000E-01  1.50000000E+00  8.00000000E-01  8.00000000E-01
  1.50000000E+00  8.00000000E-01  8.00000000E-01  1.50000000E+00  8.00000000E-01
  8.00000000E-01  1.50000000E+00  8.00000000E-01  8.00000000E-01  1.50000000E+00
  8.00000000E-01  8.00000000E-01  1.50000000E+00  8.00000000E-01  8.00000000E-01
  1.50000000E+00  8.00000000E-01  8.00000000E-01  1.50000000E+00  8.00000000E-01
  8.00000000E-01  1.50000000E+00  8.00000000E-01  8.00000000E-01  1.50000000E+00
  8.00000000E-01  8.00000000E-01  1.50000000E+00  8.00000000E-01  8.00000000E-01
  1.50000000E+00  8.00000000E-01  8.00000000E-01  1.50000000E+00  8.00000000E-01
  8.00000000E-01  1.50000000E+00  8.00000000E-01  8.00000000E-01  1.50000000E+00
  8.00000000E-01  8.00000000E-01  1.50000000E+00  8.00000000E-01  8.00000000E-01
  1.50000000E+00  8.00000000E-01  8.00000000E-01  1.50000000E+00  8.00000000E-01
  8.00000000E-01  1.50000000E+00  8.00000000E-01  8.00000000E-01  1.50000000E+00
  8.00000000E-01  8.00000000E-01  1.50000000E+00  8.00000000E-01  8.00000000E-01
  1.50000000E+00  8.00000000E-01  8.00000000E-01  1.50000000E+00  8.00000000E-01
  8.00000000E-01  1.50000000E+00  8.00000000E-01  8.00000000E-01  1.50000000E+00
  8.00000000E-01  8.00000000E-01  1.50000000E+00  8.00000000E-01  8.00000000E-01
  1.50000000E+00  8.00000000E-01  8.00000000E-01  1.50000000E+00  8.00000000E-01
  8.00000000E-01  1.50000000E+00  8.00000000E-01  8.00000000E-01  1.50000000E+00
  8.00000000E-01  8.00000000E-01  1.50000000E+00  8.00000000E-01  8.00000000E-01
  1.50000000E+00  8.00000000E-01  8.00000000E-01  1.50000000E+00  8.00000000E-01
  8.00000000E-01  1.50000000E+00  8.00000000E-01  8.00000000E-01  1.50000000E+00
  8.00000000E-01  8.00000000E-01  1.50000000E+00  8.00000000E-01  8.00000000E-01
  1.50000000E+00  8.00000000E-01  8.00000000E-01  1.50000000E+00  8.00000000E-01
  8.00000000E-01  1.50000000E+00  8.00000000E-01  8.00000000E-01  1.50000000E+00
  8.00000000E-01  8.00000000E-01  1.50000000E+00  8.00000000E-01  8.00000000E-01
  1.50000000E+00  8.00000000E-01  8.00000000E-01  1.50000000E+00  8.00000000E-01
  8.00000000E-01  1.50000000E+00  8.00000000E-01  8.00000000E-01  1.50000000E+00
  8.00000000E-01  8.00000000E-01  1.50000000E+00  8.00000000E-01  8.00000000E-01
  1.50000000E+00  8.00000000E-01  8.00000000E-01  1.50000000E+00  8.00000000E-01
  8.00000000E-01  1.50000000E+00  8.00000000E-01  8.00000000E-01  1.50000000E+00
  8.00000000E-01  8.00000000E-01  1.50000000E+00  8.00000000E-01  8.00000000E-01
  1.50000000E+00  8.00000000E-01  8.00000000E-01  1.50000000E+00  8.00000000E-01
  8.00000000E-01  1.50000000E+00  8.00000000E-01  8.00000000E-01  1.50000000E+00
  8.00000000E-01  8.00000000E-01  1.50000000E+00  8.00000000E-01  8.00000000E-01
  1.50000000E+00  8.00000000E-01  8.00000000E-01  1.50000000E+00  8.00000000E-01
  8.00000000E-01  1.50000000E+00  8.00000000E-01  8.00000000E-01  1.50000000E+00
  8.00000000E-01  8.00000000E-01  1.50000000E+00  8.00000000E-01  8.00000000E-01
  1.50000000E+00  8.00000000E-01  8.00000000E-01  1.50000000E+00  8.00000000E-01
  8.00000000E-01  1.50000000E+00  8.00000000E-01  8.00000000E-01  1.50000000E+00
  8.00000000E-01  8.00000000E-01  1.50000000E+00  8.00000000E-01  8.00000000E-01
  1.50000000E+00  8.00000000E-01  8.00000000E-01  1.50000000E+00  8.00000000E-01
  8.00000000E-01  1.50000000E+00  8.00000000E-01  8.00000000E-01  1.50000000E+00
  8.00000000E-01  8.00000000E-01  1.50000000E+00  8.00000000E-01  8.00000000E-01
  1.50000000E+00  8.00000000E-01  8.00000000E-01  1.50000000E+00  8.00000000E-01
  8.00000000E-01  1.50000000E+00  8.00000000E-01  8.00000000E-01  1.50000000E+00
  8.00000000E-01  8.00000000E-01  1.50000000E+00  8.00000000E-01  8.00000000E-01
  1.50000000E+00  8.00000000E-01  8.00000000E-01  1.50000000E+00  8.00000000E-01
  8.00000000E-01  1.50000000E+00  8.00000000E-01  8.00000000E-01  1.50000000E+00
  8.00000000E-01  8.00000000E-01  1.50000000E+00  8.00000000E-01  8.00000000E-01
  1.50000000E+00  8.00000000E-01  8.00000000E-01  1.50000000E+00  8.00000000E-01
  8.00000000E-01  1.50000000E+00  8.00000000E-01  8.00000000E-01  1.50000000E+00
  8.00000000E-01  8.00000000E-01  1.50000000E+00  8.00000000E-01  8.00000000E-01
  1.50000000E+00  8.00000000E-01  8.00000000E-01  1.50000000E+00  8.00000000E-01
  8.00000000E-01  1.50000000E+00  8.00000000E-01  8.00000000E-01  1.50000000E+00
  8.00000000E-01  8.00000000E-01  1.50000000E+00  8.00000000E-01  8.00000000E-01
  1.50000000E+00  8.00000000E-01  8.00000000E-01  1.50000000E+00  8.00000000E-01
  8.00000000E-01  1.50000000E+00  8.00000000E-01  8.00000000E-01  1.50000000E+00
  8.00000000E-01  8.00000000E-01  1.50000000E+00  8.00000000E-01  8.00000000E-01
  1.50000000E+00  8.00000000E-01  8.00000000E-01  1.50000000E+00  8.00000000E-01
  8.00000000E-01  1.50000000E+00  8.00000000E-01  8.00000000E-01  1.50000000E+00
  8.00000000E-01  8.00000000E-01  1.50000000E+00  8.00000000E-01  8.00000000E-01
  1.50000000E+00  8.00000000E-01  8.00000000E-01  1.50000000E+00  8.00000000E-01
  8.00000000E-01  1.50000000E+00  8.00000000E-01  8.00000000E-01  1.50000000E+00
  8.00000000E-01  8.00000000E-01  1.50000000E+00  8.00000000E-01  8.00000000E-01
  1.50000000E+00  8.00000000E-01  8.00000000E-01  1.50000000E+00  8.00000000E-01
  8.00000000E-01  1.50000000E+00  8.00000000E-01  8.00000000E-01  1.50000000E+00
  8.00000000E-01  8.00000000E-01  1.50000000E+00  8.00000000E-01  8.00000000E-01
  1.50000000E+00  8.00000000E-01  8.00000000E-01  1.50000000E+00  8.00000000E-01
  8.00000000E-01  1.50000000E+00  8.00000000E-01  8.00000000E-01  1.50000000E+00
  8.00000000E-01  8.00000000E-01  1.50000000E+00  8.00000000E-01  8.00000000E-01
  1.50000000E+00  8.00000000E-01  8.00000000E-01  1.50000000E+00  8.00000000E-01
  8.00000000E-01  1.50000000E+00  8.00000000E-01  8.00000000E-01  1.50000000E+00
  8.00000000E-01  8.00000000E-01  1.50000000E+00  8.00000000E-01  8.00000000E-01
  1.50000000E+00  8.00000000E-01  8.00000000E-01  1.50000000E+00  8.00000000E-01
  8.00000000E-01  1.50000000E+00  8.00000000E-01  8.00000000E-01  1.50000000E+00
  8.00000000E-01  8.00000000E-01  1.50000000E+00  8.00000000E-01  8.00000000E-01
  1.50000000E+00  8.00000000E-01  8.00000000E-01  1.50000000E+00  8.00000000E-01
  8.00000000E-01  1.50000000E+00  8.00000000E-01  8.00000000E-01  1.50000000E+00
  8.00000000E-01  8.00000000E-01  1.50000000E+00  8.00000000E-01  8.00000000E-01
  1.50000000E+00  8.00000000E-01  8.00000000E-01  1.50000000E+00  8.00000000E-01
  8.00000000E-01  1.50000000E+00  8.00000000E-01  8.00000000E-01  1.50000000E+00
  8.00000000E-01  8.00000000E-01  1.50000000E+00  8.00000000E-01  8.00000000E-01
  1.50000000E+00  8.00000000E-01  8.00000000E-01  1.50000000E+00  8.00000000E-01
  8.00000000E-01  1.50000000E+00  8.00000000E-01  8.00000000E-01  1.50000000E+00
  8.00000000E-01  8.00000000E-01  1.50000000E+00  8.00000000E-01  8.00000000E-01
  1.50000000E+00  8.00000000E-01  8.00000000E-01  1.50000000E+00  8.00000000E-01
  8.00000000E-01  1.50000000E+00  8.00000000E-01  8.00000000E-01  1.50000000E+00
  8.00000000E-01  8.00000000E-01  1.50000000E+00  8.00000000E-01  8.00000000E-01
  1.50000000E+00  8.00000000E-01  8.00000000E-01  1.50000000E+00  8.00000000E-01
  8.00000000E-01  1.50000000E+00  8.00000000E-01  8.00000000E-01  1.50000000E+00
  8.00000000E-01  8.00000000E-01  1.50000000E+00  8.00000000E-01  8.00000000E-01
  1.50000000E+00  8.00000000E-01  8.00000000E-01  1.50000000E+00  8.00000000E-01
  8.00000000E-01  1.50000000E+00  8.00000000E-01  8.00000000E-01  1.50000000E+00
  8.00000000E-01  8.00000000E-01  1.50000000E+00  8.00000000E-01  8.00000000E-01
  1.50000000E+00  8.00000000E-01  8.00000000E-01  1.50000000E+00  8.00000000E-01
  8.00000000E-01  1.50000000E+00  8.00000000E-01  8.00000000E-01  1.50000000E+00
  8.00000000E-01  8.00000000E-01  1.50000000E+00  8.00000000E-01  8.00000000E-01
  1.50000000E+00  8.00000000E-01  8.00000000E-01  1.50000000E+00  8.00000000E-01
  8.00000000E-01  1.50000000E+00  8.00000000E-01  8.00000000E-01  1.50000000E+00
  8.00000000E-01  8.00000000E-01  1.50000000E+00  8.00000000E-01  8.00000000E-01
  1.50000000E+00  8.00000000E-01  8.00000000E-01  1.50000000E+00  8.00000000E-01
  8.00000000E-01  1.50000000E+00  8.00000000E-01  8.00000000E-01  1.50000000E+00
  8.00000000E-01  8.00000000E-01  1.50000000E+00  8.00000000E-01  8.00000000E-01
  1.50000000E+00  8.00000000E-01  8.00000000E-01  1.50000000E+00  8.00000000E-01
  8.00000000E-01  1.50000000E+00  8.00000000E-01  8.00000000E-01  1.50000000E+00
  8.00000000E-01  8.00000000E-01  1.50000000E+00  8.00000000E-01  8.00000000E-01
  1.50000000E+00  8.00000000E-01  8.00000000E-01  1.50000000E+00  8.00000000E-01
  8.00000000E-01  1.50000000E+00  8.00000000E-01  8.00000000E-01  1.50000000E+00
  8.00000000E-01  8.00000000E-01  1.50000000E+00  8.00000000E-01  8.00000000E-01
  1.50000000E+00  8.00000000E-01  8.00000000E-01  1.50000000E+00  8.00000000E-01
  8.00000000E-01  1.50000000E+00  8.00000000E-01  8.00000000E-01  1.50000000E+00
  8.00000000E-01  8.00000000E-01  1.50000000E+00  8.00000000E-01  8.00000000E-01
  1.50000000E+00  8.00000000E-01  8.00000000E-01  1.50000000E+00  8.00000000E-01
  8.00000000E-01  1.50000000E+00  8.00000000E-01  8.00000000E-01  1.50000000E+00
  8.00000000E-01  8.00000000E-01  1.50000000E+00  8.00000000E-01  8.00000000E-01
  1.50000000E+00  8.00000000E-01  8.00000000E-01  1.50000000E+00  8.00000000E-01
  8.00000000E-01  1.50000000E+00  8.00000000E-01  8.00000000E-01  1.50000000E+00
  8.00000000E-01  8.00000000E-01  1.50000000E+00  8.00000000E-01  8.00000000E-01
  1.50000000E+00  8.00000000E-01  8.00000000E-01  1.50000000E+00  8.00000000E-01
  8.00000000E-01  1.50000000E+00  8.00000000E-01  8.00000000E-01  1.50000000E+00
  8.00000000E-01  8.00000000E-01  1.50000000E+00  8.00000000E-01  8.00000000E-01
  1.50000000E+00  8.00000000E-01  8.00000000E-01  1.50000000E+00  8.00000000E-01
  8.00000000E-01  1.50000000E+00  8.00000000E-01  8.00000000E-01  1.50000000E+00
  8.00000000E-01  8.00000000E-01  1.50000000E+00  8.00000000E-01  8.00000000E-01
  1.50000000E+00  8.00000000E-01  8.00000000E-01  1.50000000E+00  8.00000000E-01
  8.00000000E-01  1.50000000E+00  8.00000000E-01  8.00000000E-01  1.50000000E+00
  8.00000000E-01  8.00000000E-01  1.50000000E+00  8.00000000E-01  8.00000000E-01
  1.50000000E+00  8.00000000E-01  8.00000000E-01  1.50000000E+00  8.00000000E-01
  8.00000000E-01  1.50000000E+00  8.00000000E-01  8.00000000E-01  1.50000000E+00
  8.00000000E-01  8.00000000E-01  1.50000000E+00  8.00000000E-01  8.00000000E-01
  1.50000000E+00  8.00000000E-01  8.00000000E-01  1.50000000E+00  8.00000000E-01
  8.00000000E-01  1.50000000E+00  8.00000000E-01  8.00000000E-01  1.50000000E+00
  8.00000000E-01  8.00000000E-01  1.50000000E+00  8.00000000E-01  8.00000000E-01
  1.50000000E+00  8.00000000E-01  8.00000000E-01  1.50000000E+00  8.00000000E-01
  8.00000000E-01  1.50000000E+00  8.00000000E-01  8.00000000E-01  1.50000000E+00
  8.00000000E-01  8.00000000E-01  1.50000000E+00  8.00000000E-01  8.00000000E-01
  1.50000000E+00  8.00000000E-01  8.00000000E-01  1.50000000E+00  8.00000000E-01
  8.00000000E-01  1.50000000E+00  8.00000000E-01  8.00000000E-01  1.50000000E+00
  8.00000000E-01  8.00000000E-01  1.50000000E+00  8.00000000E-01  8.00000000E-01
  1.50000000E+00  8.00000000E-01  8.00000000E-01  1.50000000E+00  8.00000000E-01
  8.00000000E-01  1.50000000E+00  8.00000000E-01  8.00000000E-01  1.50000000E+00
  8.00000000E-01  8.00000000E-01  1.50000000E+00  8.00000000E-01  8.00000000E-01
  1.50000000E+00  8.00000000E-01  8.00000000E-01  1.50000000E+00  8.00000000E-01
  8.00000000E-01  1.50000000E+00  8.00000000E-01  8.00000000E-01  1.50000000E+00
  8.00000000E-01  8.00000000E-01  1.50000000E+00  8.00000000E-01  8.00000000E-01
  1.50000000E+00  8.00000000E-01  8.00000000E-01  1.50000000E+00  8.00000000E-01
  8.00000000E-01  1.50000000E+00  8.00000000E-01  8.00000000E-01  1.50000000E+00
  8.00000000E-01  8.00000000E-01  1.50000000E+00  8.00000000E-01  8.00000000E-01
  1.50000000E+00  8.00000000E-01  8.00000000E-01  1.50000000E+00  8.00000000E-01
  8.00000000E-01  1.50000000E+00  8.00000000E-01  8.00000000E-01  1.50000000E+00
  8.00000000E-01  8.00000000E-01  1.50000000E+00  8.00000000E-01  8.00000000E-01
  1.50000000E+00  8.00000000E-01  8.00000000E-01  1.50000000E+00  8.00000000E-01
  8.00000000E-01  1.50000000E+00  8.00000000E-01  8.00000000E-01  1.50000000E+00
  8.00000000E-01  8.00000000E-01  1.50000000E+00  8.00000000E-01  8.00000000E-01
  1.50000000E+00  8.00000000E-01  8.00000000E-01  1.50000000E+00  8.00000000E-01
  8.00000000E-01  1.50000000E+00  8.00000000E-01  8.00000000E-01  1.50000000E+00
  8.00000000E-01  8.00000000E-01  1.50000000E+00  8.00000000E-01  8.00000000E-01
  1.50000000E+00  8.00000000E-01  8.00000000E-01  1.50000000E+00  8.00000000E-01
  8.00000000E-01  1.50000000E+00  8.00000000E-01  8.00000000E-01  1.50000000E+00
  8.00000000E-01  8.00000000E-01  1.50000000E+00  8.00000000E-01  8.00000000E-01
  1.50000000E+00  8.00000000E-01  8.00000000E-01  1.50000000E+00  8.00000000E-01
  8.00000000E-01  1.50000000E+00  8.00000000E-01  8.00000000E-01  1.50000000E+00
  8.00000000E-01  8.00000000E-01  1.50000000E+00  8.00000000E-01  8.00000000E-01
  1.50000000E+00  8.00000000E-01  8.00000000E-01  1.50000000E+00  8.00000000E-01
  8.00000000E-01  1.50000000E+00  8.00000000E-01  8.00000000E-01  1.50000000E+00
  8.00000000E-01  8.00000000E-01  1.50000000E+00  8.00000000E-01  8.00000000E-01
  1.50000000E+00  8.00000000E-01  8.00000000E-01  1.50000000E+00  8.00000000E-01
  8.00000000E-01  1.50000000E+00  8.00000000E-01  8.00000000E-01  1.50000000E+00
  8.00000000E-01  8.00000000E-01  1.50000000E+00  8.00000000E-01  8.00000000E-01
  1.50000000E+00  8.00000000E-01  8.00000000E-01  1.50000000E+00  8.00000000E-01
  8.00000000E-01  1.50000000E+00  8.00000000E-01  8.00000000E-01  1.50000000E+00
  8.00000000E-01  8.00000000E-01  1.50000000E+00  8.00000000E-01  8.00000000E-01
  1.50000000E+00  8.00000000E-01  8.00000000E-01  1.50000000E+00  8.00000000E-01
  8.00000000E-01  1.50000000E+00  8.00000000E-01  8.00000000E-01  1.50000000E+00
  8.00000000E-01  8.00000000E-01  1.50000000E+00  8.00000000E-01  8.00000000E-01
  1.50000000E+00  8.00000000E-01  8.00000000E-01  1.50000000E+00  8.00000000E-01
  8.00000000E-01  1.50000000E+00  8.00000000E-01  8.00000000E-01  1.50000000E+00
  8.00000000E-01  8.00000000E-01  1.50000000E+00  8.00000000E-01  8.00000000E-01
  1.50000000E+00  8.00000000E-01  8.00000000E-01  1.50000000E+00  8.00000000E-01
  8.00000000E-01  1.50000000E+00  8.00000000E-01  8.00000000E-01  1.50000000E+00
  8.00000000E-01  8.00000000E-01  1.50000000E+00  8.00000000E-01  8.00000000E-01
  1.50000000E+00  8.00000000E-01  8.00000000E-01  1.50000000E+00  8.00000000E-01
  8.00000000E-01  1.50000000E+00  8.00000000E-01  8.00000000E-01  1.50000000E+00
  8.00000000E-01  8.00000000E-01  1.50000000E+00  8.00000000E-01  8.00000000E-01
  1.50000000E+00  8.00000000E-01  8.00000000E-01  1.50000000E+00  8.00000000E-01
  8.00000000E-01  1.50000000E+00  8.00000000E-01  8.00000000E-01  1.50000000E+00
  8.00000000E-01  8.00000000E-01  1.50000000E+00  8.00000000E-01  8.00000000E-01
  1.50000000E+00  8.00000000E-01  8.00000000E-01  1.50000000E+00  8.00000000E-01
  8.00000000E-01  1.50000000E+00  8.00000000E-01  8.00000000E-01  1.50000000E+00
  8.00000000E-01  8.00000000E-01  1.50000000E+00  8.00000000E-01  8.00000000E-01
  1.50000000E+00  8.00000000E-01  8.00000000E-01  1.50000000E+00  8.00000000E-01
  8.00000000E-01  1.50000000E+00  8.00000000E-01  8.00000000E-01  1.50000000E+00
  8.00000000E-01  8.00000000E-01  1.50000000E+00  8.00000000E-01  8.00000000E-01
  1.50000000E+00  8.00000000E-01  8.00000000E-01  1.50000000E+00  8.00000000E-01
  8.00000000E-01  1.50000000E+00  8.00000000E-01  8.00000000E-01  1.50000000E+00
  8.00000000E-01  8.00000000E-01  1.50000000E+00  8.00000000E-01  8.00000000E-01
  1.50000000E+00  8.00000000E-01  8.00000000E-01  1.50000000E+00  8.00000000E-01
  8.00000000E-01  1.50000000E+00  8.00000000E-01  8.00000000E-01  1.50000000E+00
  8.00000000E-01  8.00000000E-01  1.50000000E+00  8.00000000E-01  8.00000000E-01
  1.50000000E+00  8.00000000E-01  8.00000000E-01  1.50000000E+00  8.00000000E-01
  8.00000000E-01  1.50000000E+00  8.00000000E-01  8.00000000E-01  1.50000000E+00
  8.00000000E-01  8.00000000E-01  1.50000000E+00  8.00000000E-01  8.00000000E-01
  1.50000000E+00  8.00000000E-01  8.00000000E-01  1.50000000E+00  8.00000000E-01
  8.00000000E-01  1.50000000E+00  8.00000000E-01  8.00000000E-01  1.50000000E+00
  8.00000000E-01  8.00000000E-01  1.50000000E+00  8.00000000E-01  8.00000000E-01
  1.50000000E+00  8.00000000E-01  8.00000000E-01  1.50000000E+00  8.00000000E-01
  8.00000000E-01  1.50000000E+00  8.00000000E-01  8.00000000E-01  1.50000000E+00
  8.00000000E-01  8.00000000E-01  1.50000000E+00  8.00000000E-01  8.00000000E-01
  1.50000000E+00  8.00000000E-01  8.00000000E-01  1.50000000E+00  8.00000000E-01
  8.00000000E-01  1.50000000E+00  8.00000000E-01  8.00000000E-01  1.50000000E+00
  8.00000000E-01  8.00000000E-01  1.50000000E+00  8.00000000E-01  8.00000000E-01
  1.50000000E+00  8.00000000E-01  8.00000000E-01  1.50000000E+00  8.00000000E-01
  8.00000000E-01  1.50000000E+00  8.00000000E-01  8.00000000E-01  1.50000000E+00
  8.00000000E-01  8.00000000E-01  1.50000000E+00  8.00000000E-01  8.00000000E-01
  1.50000000E+00  8.00000000E-01  8.00000000E-01  1.50000000E+00  8.00000000E-01
  8.00000000E-01  1.50000000E+00  8.00000000E-01  8.00000000E-01  1.50000000E+00
  8.00000000E-01  8.00000000E-01  1.50000000E+00  8.00000000E-01  8.00000000E-01
  1.50000000E+00  8.00000000E-01  8.00000000E-01  1.50000000E+00  8.00000000E-01
  8.00000000E-01  1.50000000E+00  8.00000000E-01  8.00000000E-01  1.50000000E+00
  8.00000000E-01  8.00000000E-01  1.50000000E+00  8.00000000E-01  8.00000000E-01
  1.50000000E+00  8.00000000E-01  8.00000000E-01  1.50000000E+00  8.00000000E-01
  8.00000000E-01  1.50000000E+00  8.00000000E-01  8.00000000E-01  1.50000000E+00
  8.00000000E-01  8.00000000E-01  1.50000000E+00  8.00000000E-01  8.00000000E-01
  1.50000000E+00  8.00000000E-01  8.00000000E-01  1.50000000E+00  8.00000000E-01
  8.00000000E-01  1.50000000E+00  8.00000000E-01  8.00000000E-01  1.50000000E+00
  8.00000000E-01  8.00000000E-01  1.50000000E+00  8.00000000E-01  8.00000000E-01
  1.50000000E+00  8.00000000E-01  8.00000000E-01  1.50000000E+00  8.00000000E-01
  8.00000000E-01  1.50000000E+00  8.00000000E-01  8.00000000E-01  1.50000000E+00
  8.00000000E-01  8.00000000E-01  1.50000000E+00  8.00000000E-01  8.00000000E-01
  1.50000000E+00  8.00000000E-01  8.00000000E-01  1.50000000E+00  8.00000000E-01
  8.00000000E-01  1.50000000E+00  8.00000000E-01  8.00000000E-01  1.50000000E+00
  8.00000000E-01  8.00000000E-01  1.50000000E+00  8.00000000E-01  8.00000000E-01
  1.50000000E+00  8.00000000E-01  8.00000000E-01  1.50000000E+00  8.00000000E-01
  8.00000000E-01  1.50000000E+00  8.00000000E-01  8.00000000E-01  1.50000000E+00
  8.00000000E-01  8.00000000E-01  1.50000000E+00  8.00000000E-01  8.00000000E-01
  1.50000000E+00  8.00000000E-01  8.00000000E-01  1.50000000E+00  8.00000000E-01
  8.00000000E-01  1.50000000E+00  8.00000000E-01  8.00000000E-01  1.50000000E+00
  8.00000000E-01  8.00000000E-01  1.50000000E+00  8.00000000E-01  8.00000000E-01
  1.50000000E+00  8.00000000E-01  8.00000000E-01  1.50000000E+00  8.00000000E-01
  8.00000000E-01  1.50000000E+00  8.00000000E-01  8.00000000E-01  1.50000000E+00
  8.00000000E-01  8.00000000E-01  1.50000000E+00  8.00000000E-01  8.00000000E-01
  1.50000000E+00  8.00000000E-01  8.00000000E-01  1.50000000E+00  8.00000000E-01
  8.00000000E-01  1.50000000E+00  8.00000000E-01  8.00000000E-01  1.50000000E+00
  8.00000000E-01  8.00000000E-01  1.50000000E+00  8.00000000E-01  8.00000000E-01
  1.50000000E+00  8.00000000E-01  8.00000000E-01  1.50000000E+00  8.00000000E-01
  8.00000000E-01  1.50000000E+00  8.00000000E-01  8.00000000E-01  1.50000000E+00
  8.00000000E-01  8.00000000E-01  1.50000000E+00  8.00000000E-01  8.00000000E-01
  1.50000000E+00  8.00000000E-01  8.00000000E-01  1.50000000E+00  8.00000000E-01
  8.00000000E-01  1.50000000E+00  8.00000000E-01  8.00000000E-01  1.50000000E+00
  8.00000000E-01  8.00000000E-01  1.50000000E+00  8.00000000E-01  8.00000000E-01
  1.50000000E+00  8.00000000E-01  8.00000000E-01  1.50000000E+00  8.00000000E-01
  8.00000000E-01  1.50000000E+00  8.00000000E-01  8.00000000E-01  1.50000000E+00
  8.00000000E-01  8.00000000E-01  1.50000000E+00  8.00000000E-01  8.00000000E-01
  1.50000000E+00  8.00000000E-01  8.00000000E-01  1.50000000E+00  8.00000000E-01
  8.00000000E-01  1.50000000E+00  8.00000000E-01  8.00000000E-01  1.50000000E+00
  8.00000000E-01  8.00000000E-01  1.50000000E+00  8.00000000E-01  8.00000000E-01
  1.50000000E+00  8.00000000E-01  8.00000000E-01  1.50000000E+00  8.00000000E-01
  8.00000000E-01  1.50000000E+00  8.00000000E-01  8.00000000E-01  1.50000000E+00
  8.00000000E-01  8.00000000E-01  1.50000000E+00  8.00000000E-01  8.00000000E-01
  1.50000000E+00  8.00000000E-01  8.00000000E-01  1.50000000E+00  8.00000000E-01
  8.00000000E-01  1.50000000E+00  8.00000000E-01  8.00000000E-01  1.50000000E+00
  8.00000000E-01  8.00000000E-01  1.50000000E+00  8.00000000E-01  8.00000000E-01
  1.50000000E+00  8.00000000E-01  8.00000000E-01  1.50000000E+00  8.00000000E-01
  8.00000000E-01  1.50000000E+00  8.00000000E-01  8.00000000E-01  1.50000000E+00
  8.00000000E-01  8.00000000E-01  1.50000000E+00  8.00000000E-01  8.00000000E-01
  1.50000000E+00  8.00000000E-01  8.00000000E-01  1.50000000E+00  8.00000000E-01
  8.00000000E-01  1.50000000E+00  8.00000000E-01  8.00000000E-01  1.50000000E+00
  8.00000000E-01  8.00000000E-01  1.50000000E+00  8.00000000E-01  8.00000000E-01
  1.50000000E+00  8.00000000E-01  8.00000000E-01  1.50000000E+00  8.00000000E-01
  8.00000000E-01  1.50000000E+00  8.00000000E-01  8.00000000E-01  1.50000000E+00
  8.00000000E-01  8.00000000E-01  1.50000000E+00  8.00000000E-01  8.00000000E-01
  1.50000000E+00  8.00000000E-01  8.00000000E-01  1.50000000E+00  8.00000000E-01
  8.00000000E-01  1.50000000E+00  8.00000000E-01  8.00000000E-01  1.50000000E+00
  8.00000000E-01  8.00000000E-01  1.50000000E+00  8.00000000E-01  8.00000000E-01
  1.50000000E+00  8.00000000E-01  8.00000000E-01  1.50000000E+00  8.00000000E-01
  8.00000000E-01  1.50000000E+00  8.00000000E-01  8.00000000E-01  1.50000000E+00
  8.00000000E-01  8.00000000E-01  1.50000000E+00  8.00000000E-01  8.00000000E-01
  1.50000000E+00  8.00000000E-01  8.00000000E-01  1.50000000E+00  8.00000000E-01
  8.00000000E-01  1.50000000E+00  8.00000000E-01  8.00000000E-01  1.50000000E+00
  8.00000000E-01  8.00000000E-01  1.50000000E+00  8.00000000E-01  8.00000000E-01
  1.50000000E+00  8.00000000E-01  8.00000000E-01  1.50000000E+00  8.00000000E-01
  8.00000000E-01  1.50000000E+00  8.00000000E-01  8.00000000E-01  1.50000000E+00
  8.00000000E-01  8.00000000E-01  1.50000000E+00  8.00000000E-01  8.00000000E-01
  1.50000000E+00  8.00000000E-01  8.00000000E-01  1.50000000E+00  8.00000000E-01
  8.00000000E-01  1.50000000E+00  8.00000000E-01  8.00000000E-01  1.50000000E+00
  8.00000000E-01  8.00000000E-01  1.50000000E+00  8.00000000E-01  8.00000000E-01
  1.50000000E+00  8.00000000E-01  8.00000000E-01  1.50000000E+00  8.00000000E-01
  8.00000000E-01  1.50000000E+00  8.00000000E-01  8.00000000E-01  1.50000000E+00
  8.00000000E-01  8.00000000E-01  1.50000000E+00  8.00000000E-01  8.00000000E-01
  1.50000000E+00  8.00000000E-01  8.00000000E-01  1.50000000E+00  8.00000000E-01
  8.00000000E-01  1.50000000E+00  8.00000000E-01  8.00000000E-01  1.50000000E+00
  8.00000000E-01  8.00000000E-01  1.50000000E+00  8.00000000E-01  8.00000000E-01
  1.50000000E+00  8.00000000E-01  8.00000000E-01  1.50000000E+00  8.00000000E-01
  8.00000000E-01  1.50000000E+00  8.00000000E-01  8.00000000E-01  1.50000000E+00
  8.00000000E-01  8.00000000E-01  1.50000000E+00  8.00000000E-01  8.00000000E-01
  1.50000000E+00  8.00000000E-01  8.00000000E-01  1.50000000E+00  8.00000000E-01
  8.00000000E-01  1.50000000E+00  8.00000000E-01  8.00000000E-01  1.50000000E+00
  8.00000000E-01  8.00000000E-01  1.50000000E+00  8.00000000E-01  8.00000000E-01
  1.50000000E+00  8.00000000E-01  8.00000000E-01  1.50000000E+00  8.00000000E-01
  8.00000000E-01  1.50000000E+00  8.00000000E-01  8.00000000E-01  1.50000000E+00
  8.00000000E-01  8.00000000E-01  1.50000000E+00  8.00000000E-01  8.00000000E-01
  1.50000000E+00  8.00000000E-01  8.00000000E-01  1.50000000E+00  8.00000000E-01
  8.00000000E-01  1.50000000E+00  8.00000000E-01  8.00000000E-01  1.50000000E+00
  8.00000000E-01  8.00000000E-01  1.50000000E+00  8.00000000E-01  8.00000000E-01
  1.50000000E+00  8.00000000E-01  8.00000000E-01  1.50000000E+00  8.00000000E-01
  8.00000000E-01  1.50000000E+00  8.00000000E-01  8.00000000E-01  1.50000000E+00
  8.00000000E-01  8.00000000E-01  1.50000000E+00  8.00000000E-01  8.00000000E-01
  1.50000000E+00  8.00000000E-01  8.00000000E-01  1.50000000E+00  8.00000000E-01
  8.00000000E-01  1.50000000E+00  8.00000000E-01  8.00000000E-01  1.50000000E+00
  8.00000000E-01  8.00000000E-01  1.50000000E+00  8.00000000E-01  8.00000000E-01
  1.50000000E+00  8.00000000E-01  8.00000000E-01  1.50000000E+00  8.00000000E-01
  8.00000000E-01  1.50000000E+00  8.00000000E-01  8.00000000E-01  1.50000000E+00
  8.00000000E-01  8.00000000E-01  1.50000000E+00  8.00000000E-01  8.00000000E-01
  1.50000000E+00  8.00000000E-01  8.00000000E-01  1.50000000E+00  8.00000000E-01
  8.00000000E-01  1.50000000E+00  8.00000000E-01  8.00000000E-01  1.50000000E+00
  8.00000000E-01  8.00000000E-01  1.50000000E+00  8.00000000E-01  8.00000000E-01
  1.50000000E+00  8.00000000E-01  8.00000000E-01  1.50000000E+00  8.00000000E-01
  8.00000000E-01  1.50000000E+00  8.00000000E-01  8.00000000E-01  1.50000000E+00
  8.00000000E-01  8.00000000E-01  1.50000000E+00  8.00000000E-01  8.00000000E-01
  1.50000000E+00  8.00000000E-01  8.00000000E-01  1.50000000E+00  8.00000000E-01
  8.00000000E-01  1.50000000E+00  8.00000000E-01  8.00000000E-01  1.50000000E+00
  8.00000000E-01  8.00000000E-01  1.50000000E+00  8.00000000E-01  8.00000000E-01
  1.50000000E+00  8.00000000E-01  8.00000000E-01  1.50000000E+00  8.00000000E-01
  8.00000000E-01  1.50000000E+00  8.00000000E-01  8.00000000E-01  1.50000000E+00
  8.00000000E-01  8.00000000E-01  1.50000000E+00  8.00000000E-01  8.00000000E-01
  1.50000000E+00  8.00000000E-01  8.00000000E-01  1.50000000E+00  8.00000000E-01
  8.00000000E-01  1.50000000E+00  8.00000000E-01  8.00000000E-01  1.50000000E+00
  8.00000000E-01  8.00000000E-01  1.50000000E+00  8.00000000E-01  8.00000000E-01
  1.50000000E+00  8.00000000E-01  8.00000000E-01  1.50000000E+00  8.00000000E-01
  8.00000000E-01  1.50000000E+00  8.00000000E-01  8.00000000E-01  1.50000000E+00
  8.00000000E-01  8.00000000E-01  1.50000000E+00  8.00000000E-01  8.00000000E-01
  1.50000000E+00  8.00000000E-01  8.00000000E-01  1.50000000E+00  8.00000000E-01
  8.00000000E-01  1.50000000E+00  8.00000000E-01  8.00000000E-01  1.50000000E+00
  8.00000000E-01  8.00000000E-01  1.50000000E+00  8.00000000E-01  8.00000000E-01
  1.50000000E+00  8.00000000E-01  8.00000000E-01  1.50000000E+00  8.00000000E-01
  8.00000000E-01  1.50000000E+00  8.00000000E-01  8.00000000E-01  1.50000000E+00
  8.00000000E-01  8.00000000E-01  1.50000000E+00  8.00000000E-01  8.00000000E-01
  1.50000000E+00  8.00000000E-01  8.00000000E-01  1.50000000E+00  8.00000000E-01
  8.00000000E-01  1.50000000E+00  8.00000000E-01  8.00000000E-01  1.50000000E+00
  8.00000000E-01  8.00000000E-01  1.50000000E+00  8.00000000E-01  8.00000000E-01
  1.50000000E+00  8.00000000E-01  8.00000000E-01  1.50000000E+00  8.00000000E-01
  8.00000000E-01  1.50000000E+00  8.00000000E-01  8.00000000E-01  1.50000000E+00
  8.00000000E-01  8.00000000E-01  1.50000000E+00  8.00000000E-01  8.00000000E-01
  1.50000000E+00  8.00000000E-01  8.00000000E-01  1.50000000E+00  8.00000000E-01
  8.00000000E-01  1.50000000E+00  8.00000000E-01  8.00000000E-01  1.50000000E+00
  8.00000000E-01  8.00000000E-01  1.50000000E+00  8.00000000E-01  8.00000000E-01
  1.50000000E+00  8.00000000E-01  8.00000000E-01  1.50000000E+00  8.00000000E-01
  8.00000000E-01  1.50000000E+00  8.00000000E-01  8.00000000E-01  1.50000000E+00
  8.00000000E-01  8.00000000E-01  1.50000000E+00  8.00000000E-01  8.00000000E-01
  1.50000000E+00  8.00000000E-01  8.00000000E-01  1.50000000E+00  8.00000000E-01
  8.00000000E-01  1.50000000E+00  8.00000000E-01  8.00000000E-01  1.50000000E+00
  8.00000000E-01  8.00000000E-01  1.50000000E+00  8.00000000E-01  8.00000000E-01
  1.50000000E+00  8.00000000E-01  8.00000000E-01  1.50000000E+00  8.00000000E-01
  8.00000000E-01  1.50000000E+00  8.00000000E-01  8.00000000E-01  1.50000000E+00
  8.00000000E-01  8.00000000E-01  1.50000000E+00  8.00000000E-01  8.00000000E-01
  1.50000000E+00  8.00000000E-01  8.00000000E-01  1.50000000E+00  8.00000000E-01
  8.00000000E-01  1.50000000E+00  8.00000000E-01  8.00000000E-01  1.50000000E+00
  8.00000000E-01  8.00000000E-01  1.50000000E+00  8.00000000E-01  8.00000000E-01
  1.50000000E+00  8.00000000E-01  8.00000000E-01  1.50000000E+00  8.00000000E-01
  8.00000000E-01  1.50000000E+00  8.00000000E-01  8.00000000E-01  1.50000000E+00
  8.00000000E-01  8.00000000E-01  1.50000000E+00  8.00000000E-01  8.00000000E-01
  1.50000000E+00  8.00000000E-01  8.00000000E-01  1.50000000E+00  8.00000000E-01
  8.00000000E-01  1.50000000E+00  8.00000000E-01  8.00000000E-01  1.50000000E+00
  8.00000000E-01  8.00000000E-01  1.50000000E+00  8.00000000E-01  8.00000000E-01
  1.50000000E+00  8.00000000E-01  8.00000000E-01  1.50000000E+00  8.00000000E-01
  8.00000000E-01  1.50000000E+00  8.00000000E-01  8.00000000E-01  1.50000000E+00
  8.00000000E-01  8.00000000E-01  1.50000000E+00  8.00000000E-01  8.00000000E-01
  1.50000000E+00  8.00000000E-01  8.00000000E-01  1.50000000E+00  8.00000000E-01
  8.00000000E-01  1.50000000E+00  8.00000000E-01  8.00000000E-01  1.50000000E+00
  8.00000000E-01  8.00000000E-01  1.50000000E+00  8.00000000E-01  8.00000000E-01
  1.50000000E+00  8.00000000E-01  8.00000000E-01  1.50000000E+00  8.00000000E-01
  8.00000000E-01  1.50000000E+00  8.00000000E-01  8.00000000E-01  1.50000000E+00
  8.00000000E-01  8.00000000E-01  1.50000000E+00  8.00000000E-01  8.00000000E-01
  1.50000000E+00  8.00000000E-01  8.00000000E-01  1.50000000E+00  8.00000000E-01
  8.00000000E-01  1.50000000E+00  8.00000000E-01  8.00000000E-01  1.50000000E+00
  8.00000000E-01  8.00000000E-01  1.50000000E+00  8.00000000E-01  8.00000000E-01
  1.50000000E+00  8.00000000E-01  8.00000000E-01  1.50000000E+00  8.00000000E-01
  8.00000000E-01  1.50000000E+00  8.00000000E-01  8.00000000E-01  1.50000000E+00
  8.00000000E-01  8.00000000E-01  1.50000000E+00  8.00000000E-01  8.00000000E-01
  1.50000000E+00  8.00000000E-01  8.00000000E-01  1.50000000E+00  8.00000000E-01
  8.00000000E-01  1.50000000E+00  8.00000000E-01  8.00000000E-01  1.50000000E+00
  8.00000000E-01  8.00000000E-01  1.50000000E+00  8.00000000E-01  8.00000000E-01
  1.50000000E+00  8.00000000E-01  8.00000000E-01  1.50000000E+00  8.00000000E-01
  8.00000000E-01  1.50000000E+00  8.00000000E-01  8.00000000E-01  1.50000000E+00
  8.00000000E-01  8.00000000E-01  1.50000000E+00  8.00000000E-01  8.00000000E-01
  1.50000000E+00  8.00000000E-01  8.00000000E-01  1.50000000E+00  8.00000000E-01
  8.00000000E-01  1.50000000E+00  8.00000000E-01  8.00000000E-01  1.50000000E+00
  8.00000000E-01  8.00000000E-01  1.50000000E+00  8.00000000E-01  8.00000000E-01
  1.50000000E+00  8.00000000E-01  8.00000000E-01  1.50000000E+00  8.00000000E-01
  8.00000000E-01  1.50000000E+00  8.00000000E-01  8.00000000E-01  1.50000000E+00
  8.00000000E-01  8.00000000E-01  1.50000000E+00  8.00000000E-01  8.00000000E-01
  1.50000000E+00  8.00000000E-01  8.00000000E-01  1.50000000E+00  8.00000000E-01
  8.00000000E-01  1.50000000E+00  8.00000000E-01  8.00000000E-01  1.50000000E+00
  8.00000000E-01  8.00000000E-01  1.50000000E+00  8.00000000E-01  8.00000000E-01
  1.50000000E+00  8.00000000E-01  8.00000000E-01  1.50000000E+00  8.00000000E-01
  8.00000000E-01  1.50000000E+00  8.00000000E-01  8.00000000E-01  1.50000000E+00
  8.00000000E-01  8.00000000E-01  1.50000000E+00  8.00000000E-01  8.00000000E-01
  1.50000000E+00  8.00000000E-01  8.00000000E-01  1.50000000E+00  8.00000000E-01
  8.00000000E-01  1.50000000E+00  8.00000000E-01  8.00000000E-01  1.50000000E+00
  8.00000000E-01  8.00000000E-01  1.50000000E+00  8.00000000E-01  8.00000000E-01
  1.50000000E+00  8.00000000E-01  8.00000000E-01  1.50000000E+00  8.00000000E-01
  8.00000000E-01  1.50000000E+00  8.00000000E-01  8.00000000E-01  1.50000000E+00
  8.00000000E-01  8.00000000E-01  1.50000000E+00  8.00000000E-01  8.00000000E-01
  1.50000000E+00  8.00000000E-01  8.00000000E-01  1.50000000E+00  8.00000000E-01
  8.00000000E-01  1.50000000E+00  8.00000000E-01  8.00000000E-01  1.50000000E+00
  8.00000000E-01  8.00000000E-01  1.50000000E+00  8.00000000E-01  8.00000000E-01
  1.50000000E+00  8.00000000E-01  8.00000000E-01  1.50000000E+00  8.00000000E-01
  8.00000000E-01  1.50000000E+00  8.00000000E-01  8.00000000E-01  1.50000000E+00
  8.00000000E-01  8.00000000E-01  1.50000000E+00  8.00000000E-01  8.00000000E-01
  1.50000000E+00  8.00000000E-01  8.00000000E-01  1.50000000E+00  8.00000000E-01
  8.00000000E-01  1.50000000E+00  8.00000000E-01  8.00000000E-01  1.50000000E+00
  8.00000000E-01  8.00000000E-01  1.50000000E+00  8.00000000E-01  8.00000000E-01
  1.50000000E+00  8.00000000E-01  8.00000000E-01  1.50000000E+00  8.00000000E-01
  8.00000000E-01  1.50000000E+00  8.00000000E-01  8.00000000E-01  1.50000000E+00
  8.00000000E-01  8.00000000E-01  1.50000000E+00  8.00000000E-01  8.00000000E-01
  1.50000000E+00  8.00000000E-01  8.00000000E-01  1.50000000E+00  8.00000000E-01
  8.00000000E-01  1.50000000E+00  8.00000000E-01  8.00000000E-01  1.50000000E+00
  8.00000000E-01  8.00000000E-01  1.50000000E+00  8.00000000E-01  8.00000000E-01
  1.50000000E+00  8.00000000E-01  8.00000000E-01  1.50000000E+00  8.00000000E-01
  8.00000000E-01  1.50000000E+00  8.00000000E-01  8.00000000E-01  1.50000000E+00
  8.00000000E-01  8.00000000E-01  1.50000000E+00  8.00000000E-01  8.00000000E-01
  1.50000000E+00  8.00000000E-01  8.00000000E-01  1.50000000E+00  8.00000000E-01
  8.00000000E-01  1.50000000E+00  8.00000000E-01  8.00000000E-01  1.50000000E+00
  8.00000000E-01  8.00000000E-01  1.50000000E+00  8.00000000E-01  8.00000000E-01
  1.50000000E+00  8.00000000E-01  8.00000000E-01  1.50000000E+00  8.00000000E-01
  8.00000000E-01  1.50000000E+00  8.00000000E-01  8.00000000E-01  1.50000000E+00
  8.00000000E-01  8.00000000E-01  1.50000000E+00  8.00000000E-01  8.00000000E-01
  1.50000000E+00  8.00000000E-01  8.00000000E-01  1.50000000E+00  8.00000000E-01
  8.00000000E-01  1.50000000E+00  8.00000000E-01  8.00000000E-01  1.50000000E+00
  8.00000000E-01  8.00000000E-01  1.50000000E+00  8.00000000E-01  8.00000000E-01
  1.50000000E+00  8.00000000E-01  8.00000000E-01  1.50000000E+00  8.00000000E-01
  8.00000000E-01  1.50000000E+00  8.00000000E-01  8.00000000E-01  1.50000000E+00
  8.00000000E-01  8.00000000E-01  1.50000000E+00  8.00000000E-01  8.00000000E-01
  1.50000000E+00  8.00000000E-01  8.00000000E-01  1.50000000E+00  8.00000000E-01
  8.00000000E-01  1.50000000E+00  8.00000000E-01  8.00000000E-01  1.50000000E+00
  8.00000000E-01  8.00000000E-01  1.50000000E+00  8.00000000E-01  8.00000000E-01
  1.50000000E+00  8.00000000E-01  8.00000000E-01  1.50000000E+00  8.00000000E-01
  8.00000000E-01  1.50000000E+00  8.00000000E-01  8.00000000E-01  1.50000000E+00
  8.00000000E-01  8.00000000E-01  1.50000000E+00  8.00000000E-01  8.00000000E-01
  1.50000000E+00  8.00000000E-01  8.00000000E-01  1.50000000E+00  8.00000000E-01
  8.00000000E-01  1.50000000E+00  8.00000000E-01  8.00000000E-01  1.50000000E+00
  8.00000000E-01  8.00000000E-01  1.50000000E+00  8.00000000E-01  8.00000000E-01
  1.50000000E+00  8.00000000E-01  8.00000000E-01  1.50000000E+00  8.00000000E-01
  8.00000000E-01  1.50000000E+00  8.00000000E-01  8.00000000E-01  1.50000000E+00
  8.00000000E-01  8.00000000E-01  1.50000000E+00  8.00000000E-01  8.00000000E-01
  1.50000000E+00  8.00000000E-01  8.00000000E-01  1.50000000E+00  8.00000000E-01
  8.00000000E-01  1.50000000E+00  8.00000000E-01  8.00000000E-01  1.50000000E+00
  8.00000000E-01  8.00000000E-01  1.50000000E+00  8.00000000E-01  8.00000000E-01
  1.50000000E+00  8.00000000E-01  8.00000000E-01  1.50000000E+00  8.00000000E-01
  8.00000000E-01  1.50000000E+00  8.00000000E-01  8.00000000E-01  1.50000000E+00
  8.00000000E-01  8.00000000E-01  1.50000000E+00  8.00000000E-01  8.00000000E-01
  1.50000000E+00  8.00000000E-01  8.00000000E-01  1.50000000E+00  8.00000000E-01
  8.00000000E-01  1.50000000E+00  8.00000000E-01  8.00000000E-01  1.50000000E+00
  8.00000000E-01  8.00000000E-01  1.50000000E+00  8.00000000E-01  8.00000000E-01
  1.50000000E+00  8.00000000E-01  8.00000000E-01  1.50000000E+00  8.00000000E-01
  8.00000000E-01  1.50000000E+00  8.00000000E-01  8.00000000E-01  1.50000000E+00
  8.00000000E-01  8.00000000E-01  1.50000000E+00  8.00000000E-01  8.00000000E-01
  1.50000000E+00  8.00000000E-01  8.00000000E-01  1.50000000E+00  8.00000000E-01
  8.00000000E-01  1.50000000E+00  8.00000000E-01  8.00000000E-01  1.50000000E+00
  8.00000000E-01  8.00000000E-01  1.50000000E+00  8.00000000E-01  8.00000000E-01
  1.50000000E+00  8.00000000E-01  8.00000000E-01  1.50000000E+00  8.00000000E-01
  8.00000000E-01  1.50000000E+00  8.00000000E-01  8.00000000E-01  1.50000000E+00
  8.00000000E-01  8.00000000E-01  1.50000000E+00  8.00000000E-01  8.00000000E-01
  1.50000000E+00  8.00000000E-01  8.00000000E-01  1.50000000E+00  8.00000000E-01
  8.00000000E-01  1.50000000E+00  8.00000000E-01  8.00000000E-01  1.50000000E+00
  8.00000000E-01  8.00000000E-01  1.50000000E+00  8.00000000E-01  8.00000000E-01
  1.50000000E+00  8.00000000E-01  8.00000000E-01  1.50000000E+00  8.00000000E-01
  8.00000000E-01  1.50000000E+00  8.00000000E-01  8.00000000E-01  1.50000000E+00
  8.00000000E-01  8.00000000E-01  1.50000000E+00  8.00000000E-01  8.00000000E-01
  1.50000000E+00  8.00000000E-01  8.00000000E-01  1.50000000E+00  8.00000000E-01
  8.00000000E-01  1.50000000E+00  8.00000000E-01  8.00000000E-01  1.50000000E+00
  8.00000000E-01  8.00000000E-01  1.50000000E+00  8.00000000E-01  8.00000000E-01
  1.50000000E+00  8.00000000E-01  8.00000000E-01  1.50000000E+00  8.00000000E-01
  8.00000000E-01  1.50000000E+00  8.00000000E-01  8.00000000E-01  1.50000000E+00
  8.00000000E-01  8.00000000E-01  1.50000000E+00  8.00000000E-01  8.00000000E-01
  1.50000000E+00  8.00000000E-01  8.00000000E-01  1.50000000E+00  8.00000000E-01
  8.00000000E-01  1.50000000E+00  8.00000000E-01  8.00000000E-01  1.50000000E+00
  8.00000000E-01  8.00000000E-01  1.50000000E+00  8.00000000E-01  8.00000000E-01
  1.50000000E+00  8.00000000E-01  8.00000000E-01  1.50000000E+00  8.00000000E-01
  8.00000000E-01  1.50000000E+00  8.00000000E-01  8.00000000E-01  1.50000000E+00
  8.00000000E-01  8.00000000E-01  1.50000000E+00  8.00000000E-01  8.00000000E-01
  1.50000000E+00  8.00000000E-01  8.00000000E-01  1.50000000E+00  8.00000000E-01
  8.00000000E-01  1.50000000E+00  8.00000000E-01  8.00000000E-01  1.50000000E+00
  8.00000000E-01  8.00000000E-01  1.50000000E+00  8.00000000E-01  8.00000000E-01
  1.50000000E+00  8.00000000E-01  8.00000000E-01  1.50000000E+00  8.00000000E-01
  8.00000000E-01  1.50000000E+00  8.00000000E-01  8.00000000E-01  1.50000000E+00
  8.00000000E-01  8.00000000E-01  1.50000000E+00  8.00000000E-01  8.00000000E-01
  1.50000000E+00  8.00000000E-01  8.00000000E-01  1.50000000E+00  8.00000000E-01
  8.00000000E-01  1.50000000E+00  8.00000000E-01  8.00000000E-01  1.50000000E+00
  8.00000000E-01  8.00000000E-01  1.50000000E+00  8.00000000E-01  8.00000000E-01
  1.50000000E+00  8.00000000E-01  8.00000000E-01  1.50000000E+00  8.00000000E-01
  8.00000000E-01  1.50000000E+00  8.00000000E-01  8.00000000E-01  1.50000000E+00
  8.00000000E-01  8.00000000E-01  1.50000000E+00  8.00000000E-01  8.00000000E-01
  1.50000000E+00  8.00000000E-01  8.00000000E-01  1.50000000E+00  8.00000000E-01
  8.00000000E-01  1.50000000E+00  8.00000000E-01  8.00000000E-01  1.50000000E+00
  8.00000000E-01  8.00000000E-01  1.50000000E+00  8.00000000E-01  8.00000000E-01
  1.50000000E+00  8.00000000E-01  8.00000000E-01  1.50000000E+00  8.00000000E-01
  8.00000000E-01  1.50000000E+00  8.00000000E-01  8.00000000E-01  1.50000000E+00
  8.00000000E-01  8.00000000E-01  1.50000000E+00  8.00000000E-01  8.00000000E-01
  1.50000000E+00  8.00000000E-01  8.00000000E-01  1.50000000E+00  8.00000000E-01
  8.00000000E-01  1.50000000E+00  8.00000000E-01  8.00000000E-01  1.50000000E+00
  8.00000000E-01  8.00000000E-01  1.50000000E+00  8.00000000E-01  8.00000000E-01
  1.50000000E+00  8.00000000E-01  8.00000000E-01  1.50000000E+00  8.00000000E-01
  8.00000000E-01  1.50000000E+00  8.00000000E-01  8.00000000E-01  1.50000000E+00
  8.00000000E-01  8.00000000E-01  1.50000000E+00  8.00000000E-01  8.00000000E-01
  1.50000000E+00  8.00000000E-01  8.00000000E-01  1.50000000E+00  8.00000000E-01
  8.00000000E-01  1.50000000E+00  8.00000000E-01  8.00000000E-01  1.50000000E+00
  8.00000000E-01  8.00000000E-01  1.50000000E+00  8.00000000E-01  8.00000000E-01
  1.50000000E+00  8.00000000E-01  8.00000000E-01  1.50000000E+00  8.00000000E-01
  8.00000000E-01  1.50000000E+00  8.00000000E-01  8.00000000E-01  1.50000000E+00
  8.00000000E-01  8.00000000E-01  1.50000000E+00  8.00000000E-01  8.00000000E-01
  1.50000000E+00  8.00000000E-01  8.00000000E-01  1.50000000E+00  8.00000000E-01
  8.00000000E-01  1.50000000E+00  8.00000000E-01  8.00000000E-01  1.50000000E+00
  8.00000000E-01  8.00000000E-01  1.50000000E+00  8.00000000E-01  8.00000000E-01
  1.50000000E+00  8.00000000E-01  8.00000000E-01  1.50000000E+00  8.00000000E-01
  8.00000000E-01  1.50000000E+00  8.00000000E-01  8.00000000E-01  1.50000000E+00
  8.00000000E-01  8.00000000E-01  1.50000000E+00  8.00000000E-01  8.00000000E-01
  1.50000000E+00  8.00000000E-01  8.00000000E-01  1.50000000E+00  8.00000000E-01
  8.00000000E-01  1.50000000E+00  8.00000000E-01  8.00000000E-01  1.50000000E+00
  8.00000000E-01  8.00000000E-01  1.50000000E+00  8.00000000E-01  8.00000000E-01
  1.50000000E+00  8.00000000E-01  8.00000000E-01  1.50000000E+00  8.00000000E-01
  8.00000000E-01  1.50000000E+00  8.00000000E-01  8.00000000E-01  1.50000000E+00
  8.00000000E-01  8.00000000E-01  1.50000000E+00  8.00000000E-01  8.00000000E-01
  1.50000000E+00  8.00000000E-01  8.00000000E-01  1.50000000E+00  8.00000000E-01
  8.00000000E-01  1.50000000E+00  8.00000000E-01  8.00000000E-01  1.50000000E+00
  8.00000000E-01  8.00000000E-01  1.50000000E+00  8.00000000E-01  8.00000000E-01
  1.50000000E+00  8.00000000E-01  8.00000000E-01  1.50000000E+00  8.00000000E-01
  8.00000000E-01  1.50000000E+00  8.00000000E-01  8.00000000E-01  1.50000000E+00
  8.00000000E-01  8.00000000E-01  1.50000000E+00  8.00000000E-01  8.00000000E-01
  1.50000000E+00  8.00000000E-01  8.00000000E-01  1.50000000E+00  8.00000000E-01
  8.00000000E-01  1.50000000E+00  8.00000000E-01  8.00000000E-01  1.50000000E+00
  8.00000000E-01  8.00000000E-01  1.50000000E+00  8.00000000E-01  8.00000000E-01
  1.50000000E+00  8.00000000E-01  8.00000000E-01  1.50000000E+00  8.00000000E-01
  8.00000000E-01  1.50000000E+00  8.00000000E-01  8.00000000E-01  1.50000000E+00
  8.00000000E-01  8.00000000E-01  1.50000000E+00  8.00000000E-01  8.00000000E-01
  1.50000000E+00  8.00000000E-01  8.00000000E-01  1.50000000E+00  8.00000000E-01
  8.00000000E-01  1.50000000E+00  8.00000000E-01  8.00000000E-01  1.50000000E+00
  8.00000000E-01  8.00000000E-01  1.50000000E+00  8.00000000E-01  8.00000000E-01
  1.50000000E+00  8.00000000E-01  8.00000000E-01  1.50000000E+00  8.00000000E-01
  8.00000000E-01  1.50000000E+00  8.00000000E-01  8.00000000E-01  1.50000000E+00
  8.00000000E-01  8.00000000E-01  1.50000000E+00  8.00000000E-01  8.00000000E-01
  1.50000000E+00  8.00000000E-01  8.00000000E-01  1.50000000E+00  8.00000000E-01
  8.00000000E-01  1.50000000E+00  8.00000000E-01  8.00000000E-01  1.50000000E+00
  8.00000000E-01  8.00000000E-01  1.50000000E+00  8.00000000E-01  8.00000000E-01
  1.50000000E+00  8.00000000E-01  8.00000000E-01  1.50000000E+00  8.00000000E-01
  8.00000000E-01  1.50000000E+00  8.00000000E-01  8.00000000E-01  1.50000000E+00
  8.00000000E-01  8.00000000E-01  1.50000000E+00  8.00000000E-01  8.00000000E-01
  1.50000000E+00  8.00000000E-01  8.00000000E-01  1.50000000E+00  8.00000000E-01
  8.00000000E-01  1.50000000E+00  8.00000000E-01  8.00000000E-01  1.50000000E+00
  8.00000000E-01  8.00000000E-01  1.50000000E+00  8.00000000E-01  8.00000000E-01
  1.50000000E+00  8.00000000E-01  8.00000000E-01  1.50000000E+00  8.00000000E-01
  8.00000000E-01  1.50000000E+00  8.00000000E-01  8.00000000E-01  1.50000000E+00
  8.00000000E-01  8.00000000E-01  1.50000000E+00  8.00000000E-01  8.00000000E-01
  1.50000000E+00  8.00000000E-01  8.00000000E-01  1.50000000E+00  8.00000000E-01
  8.00000000E-01  1.50000000E+00  8.00000000E-01  8.00000000E-01  1.50000000E+00
  8.00000000E-01  8.00000000E-01  1.50000000E+00  8.00000000E-01  8.00000000E-01
  1.50000000E+00  8.00000000E-01  8.00000000E-01  1.50000000E+00  8.00000000E-01
  8.00000000E-01  1.50000000E+00  8.00000000E-01  8.00000000E-01  1.50000000E+00
  8.00000000E-01  8.00000000E-01  1.50000000E+00  8.00000000E-01  8.00000000E-01
  1.50000000E+00  8.00000000E-01  8.00000000E-01  1.50000000E+00  8.00000000E-01
  8.00000000E-01  1.50000000E+00  8.00000000E-01  8.00000000E-01  1.50000000E+00
  8.00000000E-01  8.00000000E-01  1.50000000E+00  8.00000000E-01  8.00000000E-01
  1.50000000E+00  8.00000000E-01  8.00000000E-01  1.50000000E+00  8.00000000E-01
  8.00000000E-01  1.50000000E+00  8.00000000E-01  8.00000000E-01  1.50000000E+00
  8.00000000E-01  8.00000000E-01  1.50000000E+00  8.00000000E-01  8.00000000E-01
  1.50000000E+00  8.00000000E-01  8.00000000E-01  1.50000000E+00  8.00000000E-01
  8.00000000E-01  1.50000000E+00  8.00000000E-01  8.00000000E-01  1.50000000E+00
  8.00000000E-01  8.00000000E-01  1.50000000E+00  8.00000000E-01  8.00000000E-01
  1.50000000E+00  8.00000000E-01  8.00000000E-01  1.50000000E+00  8.00000000E-01
  8.00000000E-01  1.50000000E+00  8.00000000E-01  8.00000000E-01  1.50000000E+00
  8.00000000E-01  8.00000000E-01  1.50000000E+00  8.00000000E-01  8.00000000E-01
  1.50000000E+00  8.00000000E-01  8.00000000E-01  1.50000000E+00  8.00000000E-01
  8.00000000E-01  1.50000000E+00  8.00000000E-01  8.00000000E-01  1.50000000E+00
  8.00000000E-01  8.00000000E-01  1.50000000E+00  8.00000000E-01  8.00000000E-01
  1.50000000E+00  8.00000000E-01  8.00000000E-01  1.50000000E+00  8.00000000E-01
  8.00000000E-01  1.50000000E+00  8.00000000E-01  8.00000000E-01  1.50000000E+00
  8.00000000E-01  8.00000000E-01  1.50000000E+00  8.00000000E-01  8.00000000E-01
  1.50000000E+00  8.00000000E-01  8.00000000E-01  1.50000000E+00  8.00000000E-01
  8.00000000E-01  1.50000000E+00  8.00000000E-01  8.00000000E-01  1.50000000E+00
  8.00000000E-01  8.00000000E-01  1.50000000E+00  8.00000000E-01  8.00000000E-01
  1.50000000E+00  8.00000000E-01  8.00000000E-01  1.50000000E+00  8.00000000E-01
  8.00000000E-01  1.50000000E+00  8.00000000E-01  8.00000000E-01  1.50000000E+00
  8.00000000E-01  8.00000000E-01  1.50000000E+00  8.00000000E-01  8.00000000E-01
  1.50000000E+00  8.00000000E-01  8.00000000E-01  1.50000000E+00  8.00000000E-01
  8.00000000E-01  1.50000000E+00  8.00000000E-01  8.00000000E-01  1.50000000E+00
  8.00000000E-01  8.00000000E-01  1.50000000E+00  8.00000000E-01  8.00000000E-01
  1.50000000E+00  8.00000000E-01  8.00000000E-01  1.50000000E+00  8.00000000E-01
  8.00000000E-01  1.50000000E+00  8.00000000E-01  8.00000000E-01  1.50000000E+00
  8.00000000E-01  8.00000000E-01  1.50000000E+00  8.00000000E-01  8.00000000E-01
  1.50000000E+00  8.00000000E-01  8.00000000E-01  1.50000000E+00  8.00000000E-01
  8.00000000E-01  1.50000000E+00  8.00000000E-01  8.00000000E-01  1.50000000E+00
  8.00000000E-01  8.00000000E-01  1.50000000E+00  8.00000000E-01  8.00000000E-01
  1.50000000E+00  8.00000000E-01  8.00000000E-01  1.50000000E+00  8.00000000E-01
  8.00000000E-01  1.50000000E+00  8.00000000E-01  8.00000000E-01  1.50000000E+00
  8.00000000E-01  8.00000000E-01  1.50000000E+00  8.00000000E-01  8.00000000E-01
  1.50000000E+00  8.00000000E-01  8.00000000E-01  1.50000000E+00  8.00000000E-01
  8.00000000E-01  1.50000000E+00  8.00000000E-01  8.00000000E-01  1.50000000E+00
  8.00000000E-01  8.00000000E-01  1.50000000E+00  8.00000000E-01  8.00000000E-01
  1.50000000E+00  8.00000000E-01  8.00000000E-01  1.50000000E+00  8.00000000E-01
  8.00000000E-01  1.50000000E+00  8.00000000E-01  8.00000000E-01  1.50000000E+00
  8.00000000E-01  8.00000000E-01  1.50000000E+00  8.00000000E-01  8.00000000E-01
  1.50000000E+00  8.00000000E-01  8.00000000E-01  1.50000000E+00  8.00000000E-01
  8.00000000E-01  1.50000000E+00  8.00000000E-01  8.00000000E-01  1.50000000E+00
  8.00000000E-01  8.00000000E-01  1.50000000E+00  8.00000000E-01  8.00000000E-01
  1.50000000E+00  8.00000000E-01  8.00000000E-01  1.50000000E+00  8.00000000E-01
  8.00000000E-01  1.50000000E+00  8.00000000E-01  8.00000000E-01  1.50000000E+00
  8.00000000E-01  8.00000000E-01  1.50000000E+00  8.00000000E-01  8.00000000E-01
  1.50000000E+00  8.00000000E-01  8.00000000E-01  1.50000000E+00  8.00000000E-01
  8.00000000E-01  1.50000000E+00  8.00000000E-01  8.00000000E-01  1.50000000E+00
  8.00000000E-01  8.00000000E-01  1.50000000E+00  8.00000000E-01  8.00000000E-01
  1.50000000E+00  8.00000000E-01  8.00000000E-01  1.50000000E+00  8.00000000E-01
  8.00000000E-01  1.50000000E+00  8.00000000E-01  8.00000000E-01  1.50000000E+00
  8.00000000E-01  8.00000000E-01  1.50000000E+00  8.00000000E-01  8.00000000E-01
  1.50000000E+00  8.00000000E-01  8.00000000E-01  1.50000000E+00  8.00000000E-01
  8.00000000E-01  1.50000000E+00  8.00000000E-01  8.00000000E-01  1.50000000E+00
  8.00000000E-01  8.00000000E-01  1.50000000E+00  8.00000000E-01  8.00000000E-01
  1.50000000E+00  8.00000000E-01  8.00000000E-01  1.50000000E+00  8.00000000E-01
  8.00000000E-01  1.50000000E+00  8.00000000E-01  8.00000000E-01  1.50000000E+00
  8.00000000E-01  8.00000000E-01  1.50000000E+00  8.00000000E-01  8.00000000E-01
  1.50000000E+00  8.00000000E-01  8.00000000E-01  1.50000000E+00  8.00000000E-01
  8.00000000E-01  1.50000000E+00  8.00000000E-01  8.00000000E-01  1.50000000E+00
  8.00000000E-01  8.00000000E-01  1.50000000E+00  8.00000000E-01  8.00000000E-01
  1.50000000E+00  8.00000000E-01  8.00000000E-01  1.50000000E+00  8.00000000E-01
  8.00000000E-01  1.50000000E+00  8.00000000E-01  8.00000000E-01  1.50000000E+00
  8.00000000E-01  8.00000000E-01  1.50000000E+00  8.00000000E-01  8.00000000E-01
  1.50000000E+00  8.00000000E-01  8.00000000E-01  1.50000000E+00  8.00000000E-01
  8.00000000E-01  1.50000000E+00  8.00000000E-01  8.00000000E-01  1.50000000E+00
  8.00000000E-01  8.00000000E-01  1.50000000E+00  8.00000000E-01  8.00000000E-01
  1.50000000E+00  8.00000000E-01  8.00000000E-01  1.50000000E+00  8.00000000E-01
  8.00000000E-01  1.50000000E+00  8.00000000E-01  8.00000000E-01  1.50000000E+00
  8.00000000E-01  8.00000000E-01  1.50000000E+00  8.00000000E-01  8.00000000E-01
  1.50000000E+00  8.00000000E-01  8.00000000E-01  1.50000000E+00  8.00000000E-01
  8.00000000E-01  1.50000000E+00  8.00000000E-01  8.00000000E-01  1.50000000E+00
  8.00000000E-01  8.00000000E-01  1.50000000E+00  8.00000000E-01  8.00000000E-01
  1.50000000E+00  8.00000000E-01  8.00000000E-01  1.50000000E+00  8.00000000E-01
  8.00000000E-01  1.50000000E+00  8.00000000E-01  8.00000000E-01  1.50000000E+00
  8.00000000E-01  8.00000000E-01  1.50000000E+00  8.00000000E-01  8.00000000E-01
  1.50000000E+00  8.00000000E-01  8.00000000E-01  1.50000000E+00  8.00000000E-01
  8.00000000E-01  1.50000000E+00  8.00000000E-01  8.00000000E-01  1.50000000E+00
  8.00000000E-01  8.00000000E-01  1.50000000E+00  8.00000000E-01  8.00000000E-01
  1.50000000E+00  8.00000000E-01  8.00000000E-01  1.50000000E+00  8.00000000E-01
  8.00000000E-01  1.50000000E+00  8.00000000E-01  8.00000000E-01  1.50000000E+00
  8.00000000E-01  8.00000000E-01  1.50000000E+00  8.00000000E-01  8.00000000E-01
  1.50000000E+00  8.00000000E-01  8.00000000E-01  1.50000000E+00  8.00000000E-01
  8.00000000E-01  1.50000000E+00  8.00000000E-01  8.00000000E-01  1.50000000E+00
  8.00000000E-01  8.00000000E-01  1.50000000E+00  8.00000000E-01  8.00000000E-01
  1.50000000E+00  8.00000000E-01  8.00000000E-01  1.50000000E+00  8.00000000E-01
  8.00000000E-01  1.50000000E+00  8.00000000E-01  8.00000000E-01  1.50000000E+00
  8.00000000E-01  8.00000000E-01  1.50000000E+00  8.00000000E-01  8.00000000E-01
  1.50000000E+00  8.00000000E-01  8.00000000E-01  1.50000000E+00  8.00000000E-01
  8.00000000E-01  1.50000000E+00  8.00000000E-01  8.00000000E-01  1.50000000E+00
  8.00000000E-01  8.00000000E-01  1.50000000E+00  8.00000000E-01  8.00000000E-01
  1.50000000E+00  8.00000000E-01  8.00000000E-01  1.50000000E+00  8.00000000E-01
  8.00000000E-01  1.50000000E+00  8.00000000E-01  8.00000000E-01  1.50000000E+00
  8.00000000E-01  8.00000000E-01  1.50000000E+00  8.00000000E-01  8.00000000E-01
  1.50000000E+00  8.00000000E-01  8.00000000E-01  1.50000000E+00  8.00000000E-01
  8.00000000E-01  1.50000000E+00  8.00000000E-01  8.00000000E-01  1.50000000E+00
  8.00000000E-01  8.00000000E-01  1.50000000E+00  8.00000000E-01  8.00000000E-01
  1.50000000E+00  8.00000000E-01  8.00000000E-01  1.50000000E+00  8.00000000E-01
  8.00000000E-01  1.50000000E+00  8.00000000E-01  8.00000000E-01  1.50000000E+00
  8.00000000E-01  8.00000000E-01  1.50000000E+00  8.00000000E-01  8.00000000E-01
  1.50000000E+00  8.00000000E-01  8.00000000E-01  1.50000000E+00  8.00000000E-01
  8.00000000E-01  1.50000000E+00  8.00000000E-01  8.00000000E-01  1.50000000E+00
  8.00000000E-01  8.00000000E-01  1.50000000E+00  8.00000000E-01  8.00000000E-01
  1.50000000E+00  8.00000000E-01  8.00000000E-01  1.50000000E+00  8.00000000E-01
  8.00000000E-01  1.50000000E+00  8.00000000E-01  8.00000000E-01  1.50000000E+00
  8.00000000E-01  8.00000000E-01  1.50000000E+00  8.00000000E-01  8.00000000E-01
  1.50000000E+00  8.00000000E-01  8.00000000E-01  1.50000000E+00  8.00000000E-01
  8.00000000E-01  1.50000000E+00  8.00000000E-01  8.00000000E-01  1.50000000E+00
  8.00000000E-01  8.00000000E-01  1.50000000E+00  8.00000000E-01  8.00000000E-01
  1.50000000E+00  8.00000000E-01  8.00000000E-01  1.50000000E+00  8.00000000E-01
  8.00000000E-01  1.50000000E+00  8.00000000E-01  8.00000000E-01  1.50000000E+00
  8.00000000E-01  8.00000000E-01  1.50000000E+00  8.00000000E-01  8.00000000E-01
  1.50000000E+00  8.00000000E-01  8.00000000E-01  1.50000000E+00  8.00000000E-01
  8.00000000E-01  1.50000000E+00  8.00000000E-01  8.00000000E-01  1.50000000E+00
  8.00000000E-01  8.00000000E-01  1.50000000E+00  8.00000000E-01  8.00000000E-01
  1.50000000E+00  8.00000000E-01  8.00000000E-01  1.50000000E+00  8.00000000E-01
  8.00000000E-01  1.50000000E+00  8.00000000E-01  8.00000000E-01  1.50000000E+00
  8.00000000E-01  8.00000000E-01  1.50000000E+00  8.00000000E-01  8.00000000E-01
  1.50000000E+00  8.00000000E-01  8.00000000E-01  1.50000000E+00  8.00000000E-01
  8.00000000E-01  1.50000000E+00  8.00000000E-01  8.00000000E-01  1.50000000E+00
  8.00000000E-01  8.00000000E-01  1.50000000E+00  8.00000000E-01  8.00000000E-01
  1.50000000E+00  8.00000000E-01  8.00000000E-01  1.50000000E+00  8.00000000E-01
  8.00000000E-01  1.50000000E+00  8.00000000E-01  8.00000000E-01  1.50000000E+00
  8.00000000E-01  8.00000000E-01  1.50000000E+00  8.00000000E-01  8.00000000E-01
  1.50000000E+00  8.00000000E-01  8.00000000E-01  1.50000000E+00  8.00000000E-01
  8.00000000E-01  1.50000000E+00  8.00000000E-01  8.00000000E-01  1.50000000E+00
  8.00000000E-01  8.00000000E-01  1.50000000E+00  8.00000000E-01  8.00000000E-01
  1.50000000E+00  8.00000000E-01  8.00000000E-01  1.50000000E+00  8.00000000E-01
  8.00000000E-01  1.50000000E+00  8.00000000E-01  8.00000000E-01  1.50000000E+00
  8.00000000E-01  8.00000000E-01  1.50000000E+00  8.00000000E-01  8.00000000E-01
  1.50000000E+00  8.00000000E-01  8.00000000E-01  1.50000000E+00  8.00000000E-01
  8.00000000E-01  1.50000000E+00  8.00000000E-01  8.00000000E-01  1.50000000E+00
  8.00000000E-01  8.00000000E-01  1.50000000E+00  8.00000000E-01  8.00000000E-01
  1.50000000E+00  8.00000000E-01  8.00000000E-01  1.50000000E+00  8.00000000E-01
  8.00000000E-01  1.50000000E+00  8.00000000E-01  8.00000000E-01  1.50000000E+00
  8.00000000E-01  8.00000000E-01  1.50000000E+00  8.00000000E-01  8.00000000E-01
  1.50000000E+00  8.00000000E-01  8.00000000E-01  1.50000000E+00  8.00000000E-01
  8.00000000E-01  1.50000000E+00  8.00000000E-01  8.00000000E-01  1.50000000E+00
  8.00000000E-01  8.00000000E-01  1.50000000E+00  8.00000000E-01  8.00000000E-01
  1.50000000E+00  8.00000000E-01  8.00000000E-01  1.50000000E+00  8.00000000E-01
  8.00000000E-01  1.50000000E+00  8.00000000E-01  8.00000000E-01  1.50000000E+00
  8.00000000E-01  8.00000000E-01  1.50000000E+00  8.00000000E-01  8.00000000E-01
  1.50000000E+00  8.00000000E-01  8.00000000E-01  1.50000000E+00  8.00000000E-01
  8.00000000E-01  1.50000000E+00  8.00000000E-01  8.00000000E-01  1.50000000E+00
  8.00000000E-01  8.00000000E-01  1.50000000E+00  8.00000000E-01  8.00000000E-01
  1.50000000E+00  8.00000000E-01  8.00000000E-01  1.50000000E+00  8.00000000E-01
  8.00000000E-01  1.50000000E+00  8.00000000E-01  8.00000000E-01  1.50000000E+00
  8.00000000E-01  8.00000000E-01  1.50000000E+00  8.00000000E-01  8.00000000E-01
  1.50000000E+00  8.00000000E-01  8.00000000E-01  1.50000000E+00  8.00000000E-01
  8.00000000E-01  1.50000000E+00  8.00000000E-01  8.00000000E-01  1.50000000E+00
  8.00000000E-01  8.00000000E-01  1.50000000E+00  8.00000000E-01  8.00000000E-01
  1.50000000E+00  8.00000000E-01  8.00000000E-01  1.50000000E+00  8.00000000E-01
  8.00000000E-01  1.50000000E+00  8.00000000E-01  8.00000000E-01  1.50000000E+00
  8.00000000E-01  8.00000000E-01  1.50000000E+00  8.00000000E-01  8.00000000E-01
  1.50000000E+00  8.00000000E-01  8.00000000E-01  1.50000000E+00  8.00000000E-01
  8.00000000E-01  1.50000000E+00  8.00000000E-01  8.00000000E-01  1.50000000E+00
  8.00000000E-01  8.00000000E-01  1.50000000E+00  8.00000000E-01  8.00000000E-01
  1.50000000E+00  8.00000000E-01  8.00000000E-01  1.50000000E+00  8.00000000E-01
  8.00000000E-01  1.50000000E+00  8.00000000E-01  8.00000000E-01  1.50000000E+00
  8.00000000E-01  8.00000000E-01  1.50000000E+00  8.00000000E-01  8.00000000E-01
  1.50000000E+00  8.00000000E-01  8.00000000E-01  1.50000000E+00  8.00000000E-01
  8.00000000E-01  1.50000000E+00  8.00000000E-01  8.00000000E-01  1.50000000E+00
  8.00000000E-01  8.00000000E-01  1.50000000E+00  8.00000000E-01  8.00000000E-01
  1.50000000E+00  8.00000000E-01  8.00000000E-01  1.50000000E+00  8.00000000E-01
  8.00000000E-01  1.50000000E+00  8.00000000E-01  8.00000000E-01  1.50000000E+00
  8.00000000E-01  8.00000000E-01  1.50000000E+00  8.00000000E-01  8.00000000E-01
  1.50000000E+00  8.00000000E-01  8.00000000E-01  1.50000000E+00  8.00000000E-01
  8.00000000E-01  1.50000000E+00  8.00000000E-01  8.00000000E-01  1.50000000E+00
  8.00000000E-01  8.00000000E-01  1.50000000E+00  8.00000000E-01  8.00000000E-01
  1.50000000E+00  8.00000000E-01  8.00000000E-01  1.50000000E+00  8.00000000E-01
  8.00000000E-01  1.50000000E+00  8.00000000E-01  8.00000000E-01  1.50000000E+00
  8.00000000E-01  8.00000000E-01  1.50000000E+00  8.00000000E-01  8.00000000E-01
  1.50000000E+00  8.00000000E-01  8.00000000E-01  1.50000000E+00  8.00000000E-01
  8.00000000E-01  1.50000000E+00  8.00000000E-01  8.00000000E-01  1.50000000E+00
  8.00000000E-01  8.00000000E-01  1.50000000E+00  8.00000000E-01  8.00000000E-01
  1.50000000E+00  8.00000000E-01  8.00000000E-01  1.50000000E+00  8.00000000E-01
  8.00000000E-01  1.50000000E+00  8.00000000E-01  8.00000000E-01  1.50000000E+00
  8.00000000E-01  8.00000000E-01  1.50000000E+00  8.00000000E-01  8.00000000E-01
  1.50000000E+00  8.00000000E-01  8.00000000E-01  1.50000000E+00  8.00000000E-01
  8.00000000E-01  1.50000000E+00  8.00000000E-01  8.00000000E-01  1.50000000E+00
  8.00000000E-01  8.00000000E-01  1.50000000E+00  8.00000000E-01  8.00000000E-01
  1.50000000E+00  8.00000000E-01  8.00000000E-01  1.50000000E+00  8.00000000E-01
  8.00000000E-01  1.50000000E+00  8.00000000E-01  8.00000000E-01  1.50000000E+00
  8.00000000E-01  8.00000000E-01  1.50000000E+00  8.00000000E-01  8.00000000E-01
  1.50000000E+00  8.00000000E-01  8.00000000E-01  1.50000000E+00  8.00000000E-01
  8.00000000E-01  1.50000000E+00  8.00000000E-01  8.00000000E-01  1.50000000E+00
  8.00000000E-01  8.00000000E-01  1.50000000E+00  8.00000000E-01  8.00000000E-01
  1.50000000E+00  8.00000000E-01  8.00000000E-01  1.50000000E+00  8.00000000E-01
  8.00000000E-01  1.50000000E+00  8.00000000E-01  8.00000000E-01  1.50000000E+00
  8.00000000E-01  8.00000000E-01  1.50000000E+00  8.00000000E-01  8.00000000E-01
  1.50000000E+00  8.00000000E-01  8.00000000E-01  1.50000000E+00  8.00000000E-01
  8.00000000E-01  1.50000000E+00  8.00000000E-01  8.00000000E-01  1.50000000E+00
  8.00000000E-01  8.00000000E-01  1.50000000E+00  8.00000000E-01  8.00000000E-01
  1.50000000E+00  8.00000000E-01  8.00000000E-01  1.50000000E+00  8.00000000E-01
  8.00000000E-01  1.50000000E+00  8.00000000E-01  8.00000000E-01  1.50000000E+00
  8.00000000E-01  8.00000000E-01  1.50000000E+00  8.00000000E-01  8.00000000E-01
  1.50000000E+00  8.00000000E-01  8.00000000E-01  1.50000000E+00  8.00000000E-01
  8.00000000E-01  1.50000000E+00  8.00000000E-01  8.00000000E-01  1.50000000E+00
  8.00000000E-01  8.00000000E-01  1.50000000E+00  8.00000000E-01  8.00000000E-01
  1.50000000E+00  8.00000000E-01  8.00000000E-01  1.50000000E+00  8.00000000E-01
  8.00000000E-01  1.50000000E+00  8.00000000E-01  8.00000000E-01  1.50000000E+00
  8.00000000E-01  8.00000000E-01  1.50000000E+00  8.00000000E-01  8.00000000E-01
  1.50000000E+00  8.00000000E-01  8.00000000E-01  1.50000000E+00  8.00000000E-01
  8.00000000E-01  1.50000000E+00  8.00000000E-01  8.00000000E-01  1.50000000E+00
  8.00000000E-01  8.00000000E-01  1.50000000E+00  8.00000000E-01  8.00000000E-01
  1.50000000E+00  8.00000000E-01  8.00000000E-01  1.50000000E+00  8.00000000E-01
  8.00000000E-01  1.50000000E+00  8.00000000E-01  8.00000000E-01  1.50000000E+00
  8.00000000E-01  8.00000000E-01  1.50000000E+00  8.00000000E-01  8.00000000E-01
  1.50000000E+00  8.00000000E-01  8.00000000E-01  1.50000000E+00  8.00000000E-01
  8.00000000E-01  1.50000000E+00  8.00000000E-01  8.00000000E-01  1.50000000E+00
  8.00000000E-01  8.00000000E-01  1.50000000E+00  8.00000000E-01  8.00000000E-01
  1.50000000E+00  8.00000000E-01  8.00000000E-01  1.50000000E+00  8.00000000E-01
  8.00000000E-01  1.50000000E+00  8.00000000E-01  8.00000000E-01  1.50000000E+00
  8.00000000E-01  8.00000000E-01  1.50000000E+00  8.00000000E-01  8.00000000E-01
  1.50000000E+00  8.00000000E-01  8.00000000E-01  1.50000000E+00  8.00000000E-01
  8.00000000E-01  1.50000000E+00  8.00000000E-01  8.00000000E-01  1.50000000E+00
  8.00000000E-01  8.00000000E-01  1.50000000E+00  8.00000000E-01  8.00000000E-01
  1.50000000E+00  8.00000000E-01  8.00000000E-01  1.50000000E+00  8.00000000E-01
  8.00000000E-01  1.50000000E+00  8.00000000E-01  8.00000000E-01  1.50000000E+00
  8.00000000E-01  8.00000000E-01  1.50000000E+00  8.00000000E-01  8.00000000E-01
  1.50000000E+00  8.00000000E-01  8.00000000E-01  1.50000000E+00  8.00000000E-01
  8.00000000E-01  1.50000000E+00  8.00000000E-01  8.00000000E-01  1.50000000E+00
  8.00000000E-01  8.00000000E-01  1.50000000E+00  8.00000000E-01  8.00000000E-01
  1.50000000E+00  8.00000000E-01  8.00000000E-01  1.50000000E+00  8.00000000E-01
  8.00000000E-01  1.50000000E+00  8.00000000E-01  8.00000000E-01  1.50000000E+00
  8.00000000E-01  8.00000000E-01  1.50000000E+00  8.00000000E-01  8.00000000E-01
  1.50000000E+00  8.00000000E-01  8.00000000E-01  1.50000000E+00  8.00000000E-01
  8.00000000E-01  1.50000000E+00  8.00000000E-01  8.00000000E-01  1.50000000E+00
  8.00000000E-01  8.00000000E-01  1.50000000E+00  8.00000000E-01  8.00000000E-01
  1.50000000E+00  8.00000000E-01  8.00000000E-01  1.50000000E+00  8.00000000E-01
  8.00000000E-01  1.50000000E+00  8.00000000E-01  8.00000000E-01  1.50000000E+00
  8.00000000E-01  8.00000000E-01  1.50000000E+00  8.00000000E-01  8.00000000E-01
  1.50000000E+00  8.00000000E-01  8.00000000E-01  1.50000000E+00  8.00000000E-01
  8.00000000E-01  1.50000000E+00  8.00000000E-01  8.00000000E-01  1.50000000E+00
  8.00000000E-01  8.00000000E-01  1.50000000E+00  8.00000000E-01  8.00000000E-01
  1.50000000E+00  8.00000000E-01  8.00000000E-01  1.50000000E+00  8.00000000E-01
  8.00000000E-01  1.50000000E+00  8.00000000E-01  8.00000000E-01  1.50000000E+00
  8.00000000E-01  8.00000000E-01  1.50000000E+00  8.00000000E-01  8.00000000E-01
  1.50000000E+00  8.00000000E-01  8.00000000E-01  1.50000000E+00  8.00000000E-01
  8.00000000E-01  1.50000000E+00  8.00000000E-01  8.00000000E-01  1.50000000E+00
  8.00000000E-01  8.00000000E-01  1.50000000E+00  8.00000000E-01  8.00000000E-01
  1.50000000E+00  8.00000000E-01  8.00000000E-01  1.50000000E+00  8.00000000E-01
  8.00000000E-01  1.50000000E+00  8.00000000E-01  8.00000000E-01  1.50000000E+00
  8.00000000E-01  8.00000000E-01  1.50000000E+00  8.00000000E-01  8.00000000E-01
  1.50000000E+00  8.00000000E-01  8.00000000E-01  1.50000000E+00  8.00000000E-01
  8.00000000E-01  1.50000000E+00  8.00000000E-01  8.00000000E-01  1.50000000E+00
  8.00000000E-01  8.00000000E-01  1.50000000E+00  8.00000000E-01  8.00000000E-01
  1.50000000E+00  8.00000000E-01  8.00000000E-01  1.50000000E+00  8.00000000E-01
  8.00000000E-01  1.50000000E+00  8.00000000E-01  8.00000000E-01  1.50000000E+00
  8.00000000E-01  8.00000000E-01  1.50000000E+00  8.00000000E-01  8.00000000E-01
  1.50000000E+00  8.00000000E-01  8.00000000E-01  1.50000000E+00  8.00000000E-01
  8.00000000E-01  1.50000000E+00  8.00000000E-01  8.00000000E-01  1.50000000E+00
  8.00000000E-01  8.00000000E-01  1.50000000E+00  8.00000000E-01  8.00000000E-01
  1.50000000E+00  8.00000000E-01  8.00000000E-01  1.50000000E+00  8.00000000E-01
  8.00000000E-01  1.50000000E+00  8.00000000E-01  8.00000000E-01  1.50000000E+00
  8.00000000E-01  8.00000000E-01  1.50000000E+00  8.00000000E-01  8.00000000E-01
  1.50000000E+00  8.00000000E-01  8.00000000E-01  1.50000000E+00  8.00000000E-01
  8.00000000E-01  1.50000000E+00  8.00000000E-01  8.00000000E-01  1.50000000E+00
  8.00000000E-01  8.00000000E-01  1.50000000E+00  8.00000000E-01  8.00000000E-01
  1.50000000E+00  8.00000000E-01  8.00000000E-01  1.50000000E+00  8.00000000E-01
  8.00000000E-01  1.50000000E+00  8.00000000E-01  8.00000000E-01  1.50000000E+00
  8.00000000E-01  8.00000000E-01  1.50000000E+00  8.00000000E-01  8.00000000E-01
  1.50000000E+00  8.00000000E-01  8.00000000E-01  1.50000000E+00  8.00000000E-01
  8.00000000E-01  1.50000000E+00  8.00000000E-01  8.00000000E-01  1.50000000E+00
  8.00000000E-01  8.00000000E-01  1.50000000E+00  8.00000000E-01  8.00000000E-01
  1.50000000E+00  8.00000000E-01  8.00000000E-01  1.50000000E+00  8.00000000E-01
  8.00000000E-01  1.50000000E+00  8.00000000E-01  8.00000000E-01  1.50000000E+00
  8.00000000E-01  8.00000000E-01  1.50000000E+00  8.00000000E-01  8.00000000E-01
  1.50000000E+00  8.00000000E-01  8.00000000E-01  1.50000000E+00  8.00000000E-01
  8.00000000E-01  1.50000000E+00  8.00000000E-01  8.00000000E-01  1.50000000E+00
  8.00000000E-01  8.00000000E-01  1.50000000E+00  8.00000000E-01  8.00000000E-01
  1.50000000E+00  8.00000000E-01  8.00000000E-01  1.50000000E+00  8.00000000E-01
  8.00000000E-01  1.50000000E+00  8.00000000E-01  8.00000000E-01  1.50000000E+00
  8.00000000E-01  8.00000000E-01  1.50000000E+00  8.00000000E-01  8.00000000E-01
  1.50000000E+00  8.00000000E-01  8.00000000E-01  1.50000000E+00  8.00000000E-01
  8.00000000E-01  1.50000000E+00  8.00000000E-01  8.00000000E-01  1.50000000E+00
  8.00000000E-01  8.00000000E-01  1.50000000E+00  8.00000000E-01  8.00000000E-01
  1.50000000E+00  8.00000000E-01  8.00000000E-01  1.50000000E+00  8.00000000E-01
  8.00000000E-01  1.50000000E+00  8.00000000E-01  8.00000000E-01  1.50000000E+00
  8.00000000E-01  8.00000000E-01  1.50000000E+00  8.00000000E-01  8.00000000E-01
  1.50000000E+00  8.00000000E-01  8.00000000E-01  1.50000000E+00  8.00000000E-01
  8.00000000E-01  1.50000000E+00  8.00000000E-01  8.00000000E-01  1.50000000E+00
  8.00000000E-01  8.00000000E-01  1.50000000E+00  8.00000000E-01  8.00000000E-01
  1.50000000E+00  8.00000000E-01  8.00000000E-01  1.50000000E+00  8.00000000E-01
  8.00000000E-01  1.50000000E+00  8.00000000E-01  8.00000000E-01  1.50000000E+00
  8.00000000E-01  8.00000000E-01  1.50000000E+00  8.00000000E-01  8.00000000E-01
  1.50000000E+00  8.00000000E-01  8.00000000E-01  1.50000000E+00  8.00000000E-01
  8.00000000E-01  1.50000000E+00  8.00000000E-01  8.00000000E-01  1.50000000E+00
  8.00000000E-01  8.00000000E-01  1.50000000E+00  8.00000000E-01  8.00000000E-01
  1.50000000E+00  8.00000000E-01  8.00000000E-01  1.50000000E+00  8.00000000E-01
  8.00000000E-01  1.50000000E+00  8.00000000E-01  8.00000000E-01  1.50000000E+00
  8.00000000E-01  8.00000000E-01  1.50000000E+00  8.00000000E-01  8.00000000E-01
  1.50000000E+00  8.00000000E-01  8.00000000E-01  1.50000000E+00  8.00000000E-01
  8.00000000E-01  1.50000000E+00  8.00000000E-01  8.00000000E-01  1.50000000E+00
  8.00000000E-01  8.00000000E-01  1.50000000E+00  8.00000000E-01  8.00000000E-01
  1.50000000E+00  8.00000000E-01  8.00000000E-01  1.50000000E+00  8.00000000E-01
  8.00000000E-01  1.50000000E+00  8.00000000E-01  8.00000000E-01  1.50000000E+00
  8.00000000E-01  8.00000000E-01  1.50000000E+00  8.00000000E-01  8.00000000E-01
  1.50000000E+00  8.00000000E-01  8.00000000E-01  1.50000000E+00  8.00000000E-01
  8.00000000E-01  1.50000000E+00  8.00000000E-01  8.00000000E-01  1.50000000E+00
  8.00000000E-01  8.00000000E-01  1.50000000E+00  8.00000000E-01  8.00000000E-01
  1.50000000E+00  8.00000000E-01  8.00000000E-01  1.50000000E+00  8.00000000E-01
  8.00000000E-01  1.50000000E+00  8.00000000E-01  8.00000000E-01  1.50000000E+00
  8.00000000E-01  8.00000000E-01  1.50000000E+00  8.00000000E-01  8.00000000E-01
  1.50000000E+00  8.00000000E-01  8.00000000E-01  1.50000000E+00  8.00000000E-01
  8.00000000E-01  1.50000000E+00  8.00000000E-01  8.00000000E-01  1.50000000E+00
  8.00000000E-01  8.00000000E-01  1.50000000E+00  8.00000000E-01  8.00000000E-01
  1.50000000E+00  8.00000000E-01  8.00000000E-01  1.50000000E+00  8.00000000E-01
  8.00000000E-01  1.50000000E+00  8.00000000E-01  8.00000000E-01  1.50000000E+00
  8.00000000E-01  8.00000000E-01  1.50000000E+00  8.00000000E-01  8.00000000E-01
  1.50000000E+00  8.00000000E-01  8.00000000E-01  1.50000000E+00  8.00000000E-01
  8.00000000E-01  1.50000000E+00  8.00000000E-01  8.00000000E-01  1.50000000E+00
  8.00000000E-01  8.00000000E-01  1.50000000E+00  8.00000000E-01  8.00000000E-01
  1.50000000E+00  8.00000000E-01  8.00000000E-01  1.50000000E+00  8.00000000E-01
  8.00000000E-01  1.50000000E+00  8.00000000E-01  8.00000000E-01  1.50000000E+00
  8.00000000E-01  8.00000000E-01  1.50000000E+00  8.00000000E-01  8.00000000E-01
  1.50000000E+00  8.00000000E-01  8.00000000E-01  1.50000000E+00  8.00000000E-01
  8.00000000E-01  1.50000000E+00  8.00000000E-01  8.00000000E-01  1.50000000E+00
  8.00000000E-01  8.00000000E-01  1.50000000E+00  8.00000000E-01  8.00000000E-01
  1.50000000E+00  8.00000000E-01  8.00000000E-01  1.50000000E+00  8.00000000E-01
  8.00000000E-01  1.50000000E+00  8.00000000E-01  8.00000000E-01  1.50000000E+00
  8.00000000E-01  8.00000000E-01  1.50000000E+00  8.00000000E-01  8.00000000E-01
  1.50000000E+00  8.00000000E-01  8.00000000E-01  1.50000000E+00  8.00000000E-01
  8.00000000E-01  1.50000000E+00  8.00000000E-01  8.00000000E-01  1.50000000E+00
  8.00000000E-01  8.00000000E-01  1.50000000E+00  8.00000000E-01  8.00000000E-01
  1.50000000E+00  8.00000000E-01  8.00000000E-01  1.50000000E+00  8.00000000E-01
  8.00000000E-01  1.50000000E+00  8.00000000E-01  8.00000000E-01  1.50000000E+00
  8.00000000E-01  8.00000000E-01  1.50000000E+00  8.00000000E-01  8.00000000E-01
  1.50000000E+00  8.00000000E-01  8.00000000E-01  1.50000000E+00  8.00000000E-01
  8.00000000E-01  1.50000000E+00  8.00000000E-01  8.00000000E-01  1.50000000E+00
  8.00000000E-01  8.00000000E-01  1.50000000E+00  8.00000000E-01  8.00000000E-01
  1.50000000E+00  8.00000000E-01  8.00000000E-01  1.50000000E+00  8.00000000E-01
  8.00000000E-01  1.50000000E+00  8.00000000E-01  8.00000000E-01  1.50000000E+00
  8.00000000E-01  8.00000000E-01  1.50000000E+00  8.00000000E-01  8.00000000E-01
  1.50000000E+00  8.00000000E-01  8.00000000E-01  1.50000000E+00  8.00000000E-01
  8.00000000E-01  1.50000000E+00  8.00000000E-01  8.00000000E-01  1.50000000E+00
  8.00000000E-01  8.00000000E-01  1.50000000E+00  8.00000000E-01  8.00000000E-01
  1.50000000E+00  8.00000000E-01  8.00000000E-01  1.50000000E+00  8.00000000E-01
  8.00000000E-01  1.50000000E+00  8.00000000E-01  8.00000000E-01  1.50000000E+00
  8.00000000E-01  8.00000000E-01  1.50000000E+00  8.00000000E-01  8.00000000E-01
  1.50000000E+00  8.00000000E-01  8.00000000E-01  1.50000000E+00  8.00000000E-01
  8.00000000E-01  1.50000000E+00  8.00000000E-01  8.00000000E-01  1.50000000E+00
  8.00000000E-01  8.00000000E-01  1.50000000E+00  8.00000000E-01  8.00000000E-01
  1.50000000E+00  8.00000000E-01  8.00000000E-01  1.50000000E+00  8.00000000E-01
  8.00000000E-01  1.50000000E+00  8.00000000E-01  8.00000000E-01  1.50000000E+00
  8.00000000E-01  8.00000000E-01  1.50000000E+00  8.00000000E-01  8.00000000E-01
  1.50000000E+00  8.00000000E-01  8.00000000E-01  1.50000000E+00  8.00000000E-01
  8.00000000E-01  1.50000000E+00  8.00000000E-01  8.00000000E-01  1.50000000E+00
  8.00000000E-01  8.00000000E-01  1.50000000E+00  8.00000000E-01  8.00000000E-01
  1.50000000E+00  8.00000000E-01  8.00000000E-01  1.50000000E+00  8.00000000E-01
  8.00000000E-01  1.50000000E+00  8.00000000E-01  8.00000000E-01  1.50000000E+00
  8.00000000E-01  8.00000000E-01  1.50000000E+00  8.00000000E-01  8.00000000E-01
  1.50000000E+00  8.00000000E-01  8.00000000E-01  1.50000000E+00  8.00000000E-01
  8.00000000E-01  1.50000000E+00  8.00000000E-01  8.00000000E-01  1.50000000E+00
  8.00000000E-01  8.00000000E-01  1.50000000E+00  8.00000000E-01  8.00000000E-01
  1.50000000E+00  8.00000000E-01  8.00000000E-01  1.50000000E+00  8.00000000E-01
  8.00000000E-01  1.50000000E+00  8.00000000E-01  8.00000000E-01  1.50000000E+00
  8.00000000E-01  8.00000000E-01  1.50000000E+00  8.00000000E-01  8.00000000E-01
  1.50000000E+00  8.00000000E-01  8.00000000E-01  1.50000000E+00  8.00000000E-01
  8.00000000E-01  1.50000000E+00  8.00000000E-01  8.00000000E-01  1.50000000E+00
  8.00000000E-01  8.00000000E-01  1.50000000E+00  8.00000000E-01  8.00000000E-01
  1.50000000E+00  8.00000000E-01  8.00000000E-01  1.50000000E+00  8.00000000E-01
  8.00000000E-01  1.50000000E+00  8.00000000E-01  8.00000000E-01  1.50000000E+00
  8.00000000E-01  8.00000000E-01  1.50000000E+00  8.00000000E-01  8.00000000E-01
  1.50000000E+00  8.00000000E-01  8.00000000E-01  1.50000000E+00  8.00000000E-01
  8.00000000E-01  1.50000000E+00  8.00000000E-01  8.00000000E-01  1.50000000E+00
  8.00000000E-01  8.00000000E-01  1.50000000E+00  8.00000000E-01  8.00000000E-01
  1.50000000E+00  8.00000000E-01  8.00000000E-01  1.50000000E+00  8.00000000E-01
  8.00000000E-01  1.50000000E+00  8.00000000E-01  8.00000000E-01  1.50000000E+00
  8.00000000E-01  8.00000000E-01  1.50000000E+00  8.00000000E-01  8.00000000E-01
  1.50000000E+00  8.00000000E-01  8.00000000E-01  1.50000000E+00  8.00000000E-01
  8.00000000E-01  1.50000000E+00  8.00000000E-01  8.00000000E-01  1.50000000E+00
  8.00000000E-01  8.00000000E-01  1.50000000E+00  8.00000000E-01  8.00000000E-01
  1.50000000E+00  8.00000000E-01  8.00000000E-01  1.50000000E+00  8.00000000E-01
  8.00000000E-01  1.50000000E+00  8.00000000E-01  8.00000000E-01  1.50000000E+00
  8.00000000E-01  8.00000000E-01  1.50000000E+00  8.00000000E-01  8.00000000E-01
  1.50000000E+00  8.00000000E-01  8.00000000E-01  1.50000000E+00  8.00000000E-01
  8.00000000E-01  1.50000000E+00  8.00000000E-01  8.00000000E-01  1.50000000E+00
  8.00000000E-01  8.00000000E-01  1.50000000E+00  8.00000000E-01  8.00000000E-01
  1.50000000E+00  8.00000000E-01  8.00000000E-01  1.50000000E+00  8.00000000E-01
  8.00000000E-01  1.50000000E+00  8.00000000E-01  8.00000000E-01  1.50000000E+00
  8.00000000E-01  8.00000000E-01  1.50000000E+00  8.00000000E-01  8.00000000E-01
  1.50000000E+00  8.00000000E-01  8.00000000E-01  1.50000000E+00  8.00000000E-01
  8.00000000E-01  1.50000000E+00  8.00000000E-01  8.00000000E-01  1.50000000E+00
  8.00000000E-01  8.00000000E-01  1.50000000E+00  8.00000000E-01  8.00000000E-01
  1.50000000E+00  8.00000000E-01  8.00000000E-01  1.50000000E+00  8.00000000E-01
  8.00000000E-01  1.50000000E+00  8.00000000E-01  8.00000000E-01  1.50000000E+00
  8.00000000E-01  8.00000000E-01  1.50000000E+00  8.00000000E-01  8.00000000E-01
  1.50000000E+00  8.00000000E-01  8.00000000E-01  1.50000000E+00  8.00000000E-01
  8.00000000E-01  1.50000000E+00  8.00000000E-01  8.00000000E-01  1.50000000E+00
  8.00000000E-01  8.00000000E-01  1.50000000E+00  8.00000000E-01  8.00000000E-01
  1.50000000E+00  8.00000000E-01  8.00000000E-01  1.50000000E+00  8.00000000E-01
  8.00000000E-01  1.50000000E+00  8.00000000E-01  8.00000000E-01  1.50000000E+00
  8.00000000E-01  8.00000000E-01  1.50000000E+00  8.00000000E-01  8.00000000E-01
  1.50000000E+00  8.00000000E-01  8.00000000E-01  1.50000000E+00  8.00000000E-01
  8.00000000E-01  1.50000000E+00  8.00000000E-01  8.00000000E-01  1.50000000E+00
  8.00000000E-01  8.00000000E-01  1.50000000E+00  8.00000000E-01  8.00000000E-01
  1.50000000E+00  8.00000000E-01  8.00000000E-01  1.50000000E+00  8.00000000E-01
  8.00000000E-01  1.50000000E+00  8.00000000E-01  8.00000000E-01  1.50000000E+00
  8.00000000E-01  8.00000000E-01  1.50000000E+00  8.00000000E-01  8.00000000E-01
  1.50000000E+00  8.00000000E-01  8.00000000E-01  1.50000000E+00  8.00000000E-01
  8.00000000E-01  1.50000000E+00  8.00000000E-01  8.00000000E-01  1.50000000E+00
  8.00000000E-01  8.00000000E-01  1.50000000E+00  8.00000000E-01  8.00000000E-01
  1.50000000E+00  8.00000000E-01  8.00000000E-01  1.50000000E+00  8.00000000E-01
  8.00000000E-01  1.50000000E+00  8.00000000E-01  8.00000000E-01  1.50000000E+00
  8.00000000E-01  8.00000000E-01  1.50000000E+00  8.00000000E-01  8.00000000E-01
  1.50000000E+00  8.00000000E-01  8.00000000E-01  1.50000000E+00  8.00000000E-01
  8.00000000E-01  1.50000000E+00  8.00000000E-01  8.00000000E-01  1.50000000E+00
  8.00000000E-01  8.00000000E-01  1.50000000E+00  8.00000000E-01  8.00000000E-01
  1.50000000E+00  8.00000000E-01  8.00000000E-01  1.50000000E+00  8.00000000E-01
  8.00000000E-01  1.50000000E+00  8.00000000E-01  8.00000000E-01  1.50000000E+00
  8.00000000E-01  8.00000000E-01  1.50000000E+00  8.00000000E-01  8.00000000E-01
  1.50000000E+00  8.00000000E-01  8.00000000E-01  1.50000000E+00  8.00000000E-01
  8.00000000E-01  1.50000000E+00  8.00000000E-01  8.00000000E-01  1.50000000E+00
  8.00000000E-01  8.00000000E-01  1.50000000E+00  8.00000000E-01  8.00000000E-01
  1.50000000E+00  8.00000000E-01  8.00000000E-01  1.50000000E+00  8.00000000E-01
  8.00000000E-01  1.50000000E+00  8.00000000E-01  8.00000000E-01  1.50000000E+00
  8.00000000E-01  8.00000000E-01  1.50000000E+00  8.00000000E-01  8.00000000E-01
  1.50000000E+00  8.00000000E-01  8.00000000E-01  1.50000000E+00  8.00000000E-01
  8.00000000E-01  1.50000000E+00  8.00000000E-01  8.00000000E-01  1.50000000E+00
  8.00000000E-01  8.00000000E-01  1.50000000E+00  8.00000000E-01  8.00000000E-01
  1.50000000E+00  8.00000000E-01  8.00000000E-01  1.50000000E+00  8.00000000E-01
  8.00000000E-01  1.50000000E+00  8.00000000E-01  8.00000000E-01  1.50000000E+00
  8.00000000E-01  8.00000000E-01  1.50000000E+00  8.00000000E-01  8.00000000E-01
  1.50000000E+00  8.00000000E-01  8.00000000E-01  1.50000000E+00  8.00000000E-01
  8.00000000E-01  1.50000000E+00  8.00000000E-01  8.00000000E-01  1.50000000E+00
  8.00000000E-01  8.00000000E-01  1.50000000E+00  8.00000000E-01  8.00000000E-01
  1.50000000E+00  8.00000000E-01  8.00000000E-01  1.50000000E+00  8.00000000E-01
  8.00000000E-01  1.50000000E+00  8.00000000E-01  8.00000000E-01  1.50000000E+00
  8.00000000E-01  8.00000000E-01  1.50000000E+00  8.00000000E-01  8.00000000E-01
  1.50000000E+00  8.00000000E-01  8.00000000E-01  1.50000000E+00  8.00000000E-01
  8.00000000E-01  1.50000000E+00  8.00000000E-01  8.00000000E-01  1.50000000E+00
  8.00000000E-01  8.00000000E-01  1.50000000E+00  8.00000000E-01  8.00000000E-01
  1.50000000E+00  8.00000000E-01  8.00000000E-01  1.50000000E+00  8.00000000E-01
  8.00000000E-01  1.50000000E+00  8.00000000E-01  8.00000000E-01  1.50000000E+00
  8.00000000E-01  8.00000000E-01  1.50000000E+00  8.00000000E-01  8.00000000E-01
  1.50000000E+00  8.00000000E-01  8.00000000E-01  1.50000000E+00  8.00000000E-01
  8.00000000E-01  1.50000000E+00  8.00000000E-01  8.00000000E-01  1.50000000E+00
  8.00000000E-01  8.00000000E-01  1.50000000E+00  8.00000000E-01  8.00000000E-01
  1.50000000E+00  8.00000000E-01  8.00000000E-01  1.50000000E+00  8.00000000E-01
  8.00000000E-01  1.50000000E+00  8.00000000E-01  8.00000000E-01  1.50000000E+00
  8.00000000E-01  8.00000000E-01  1.50000000E+00  8.00000000E-01  8.00000000E-01
  1.50000000E+00  8.00000000E-01  8.00000000E-01  1.50000000E+00  8.00000000E-01
  8.00000000E-01  1.50000000E+00  8.00000000E-01  8.00000000E-01  1.50000000E+00
  8.00000000E-01  8.00000000E-01  1.50000000E+00  8.00000000E-01  8.00000000E-01
  1.50000000E+00  8.00000000E-01  8.00000000E-01  1.50000000E+00  8.00000000E-01
  8.00000000E-01  1.50000000E+00  8.00000000E-01  8.00000000E-01  1.50000000E+00
  8.00000000E-01  8.00000000E-01  1.50000000E+00  8.00000000E-01  8.00000000E-01
  1.50000000E+00  8.00000000E-01  8.00000000E-01  1.50000000E+00  8.00000000E-01
  8.00000000E-01  1.50000000E+00  8.00000000E-01  8.00000000E-01  1.50000000E+00
  8.00000000E-01  8.00000000E-01  1.50000000E+00  8.00000000E-01  8.00000000E-01
  1.50000000E+00  8.00000000E-01  8.00000000E-01  1.50000000E+00  8.00000000E-01
  8.00000000E-01  1.50000000E+00  8.00000000E-01  8.00000000E-01  1.50000000E+00
  8.00000000E-01  8.00000000E-01  1.50000000E+00  8.00000000E-01  8.00000000E-01
  1.50000000E+00  8.00000000E-01  8.00000000E-01  1.50000000E+00  8.00000000E-01
  8.00000000E-01  1.50000000E+00  8.00000000E-01  8.00000000E-01  1.50000000E+00
  8.00000000E-01  8.00000000E-01  1.50000000E+00  8.00000000E-01  8.00000000E-01
  1.50000000E+00  8.00000000E-01  8.00000000E-01  1.50000000E+00  8.00000000E-01
  8.00000000E-01  1.50000000E+00  8.00000000E-01  8.00000000E-01  1.50000000E+00
  8.00000000E-01  8.00000000E-01  1.50000000E+00  8.00000000E-01  8.00000000E-01
  1.50000000E+00  8.00000000E-01  8.00000000E-01  1.50000000E+00  8.00000000E-01
  8.00000000E-01  1.50000000E+00  8.00000000E-01  8.00000000E-01  1.50000000E+00
  8.00000000E-01  8.00000000E-01  1.50000000E+00  8.00000000E-01  8.00000000E-01
  1.50000000E+00  8.00000000E-01  8.00000000E-01  1.50000000E+00  8.00000000E-01
  8.00000000E-01  1.50000000E+00  8.00000000E-01  8.00000000E-01  1.50000000E+00
  8.00000000E-01  8.00000000E-01  1.50000000E+00  8.00000000E-01  8.00000000E-01
  1.50000000E+00  8.00000000E-01  8.00000000E-01  1.50000000E+00  8.00000000E-01
  8.00000000E-01  1.50000000E+00  8.00000000E-01  8.00000000E-01  1.50000000E+00
  8.00000000E-01  8.00000000E-01  1.50000000E+00  8.00000000E-01  8.00000000E-01
  1.50000000E+00  8.00000000E-01  8.00000000E-01  1.50000000E+00  8.00000000E-01
  8.00000000E-01  1.50000000E+00  8.00000000E-01  8.00000000E-01  1.50000000E+00
  8.00000000E-01  8.00000000E-01  1.50000000E+00  8.00000000E-01  8.00000000E-01
  1.50000000E+00  8.00000000E-01  8.00000000E-01  1.50000000E+00  8.00000000E-01
  8.00000000E-01  1.50000000E+00  8.00000000E-01  8.00000000E-01  1.50000000E+00
  8.00000000E-01  8.00000000E-01  1.50000000E+00  8.00000000E-01  8.00000000E-01
  1.50000000E+00  8.00000000E-01  8.00000000E-01  1.50000000E+00  8.00000000E-01
  8.00000000E-01  1.50000000E+00  8.00000000E-01  8.00000000E-01  1.50000000E+00
  8.00000000E-01  8.00000000E-01  1.50000000E+00  8.00000000E-01  8.00000000E-01
  1.50000000E+00  8.00000000E-01  8.00000000E-01  1.50000000E+00  8.00000000E-01
  8.00000000E-01  1.50000000E+00  8.00000000E-01  8.00000000E-01  1.50000000E+00
  8.00000000E-01  8.00000000E-01  1.50000000E+00  8.00000000E-01  8.00000000E-01
  1.50000000E+00  8.00000000E-01  8.00000000E-01  1.50000000E+00  8.00000000E-01
  8.00000000E-01  1.50000000E+00  8.00000000E-01  8.00000000E-01  1.50000000E+00
  8.00000000E-01  8.00000000E-01  1.50000000E+00  8.00000000E-01  8.00000000E-01
  1.50000000E+00  8.00000000E-01  8.00000000E-01  1.50000000E+00  8.00000000E-01
  8.00000000E-01  1.50000000E+00  8.00000000E-01  8.00000000E-01  1.50000000E+00
  8.00000000E-01  8.00000000E-01  1.50000000E+00  8.00000000E-01  8.00000000E-01
  1.50000000E+00  8.00000000E-01  8.00000000E-01  1.50000000E+00  8.00000000E-01
  8.00000000E-01  1.50000000E+00  8.00000000E-01  8.00000000E-01  1.50000000E+00
  8.00000000E-01  8.00000000E-01  1.50000000E+00  8.00000000E-01  8.00000000E-01
  1.50000000E+00  8.00000000E-01  8.00000000E-01  1.50000000E+00  8.00000000E-01
  8.00000000E-01  1.50000000E+00  8.00000000E-01  8.00000000E-01  1.50000000E+00
  8.00000000E-01  8.00000000E-01  1.50000000E+00  8.00000000E-01  8.00000000E-01
  1.50000000E+00  8.00000000E-01  8.00000000E-01  1.50000000E+00  8.00000000E-01
  8.00000000E-01  1.50000000E+00  8.00000000E-01  8.00000000E-01  1.50000000E+00
  8.00000000E-01  8.00000000E-01  1.50000000E+00  8.00000000E-01  8.00000000E-01
  1.50000000E+00  8.00000000E-01  8.00000000E-01  1.50000000E+00  8.00000000E-01
  8.00000000E-01  1.50000000E+00  8.00000000E-01  8.00000000E-01  1.50000000E+00
  8.00000000E-01  8.00000000E-01  1.50000000E+00  8.00000000E-01  8.00000000E-01
  1.50000000E+00  8.00000000E-01  8.00000000E-01  1.50000000E+00  8.00000000E-01
  8.00000000E-01  1.50000000E+00  8.00000000E-01  8.00000000E-01  1.50000000E+00
  8.00000000E-01  8.00000000E-01  1.50000000E+00  8.00000000E-01  8.00000000E-01
  1.50000000E+00  8.00000000E-01  8.00000000E-01  1.50000000E+00  8.00000000E-01
  8.00000000E-01  1.50000000E+00  8.00000000E-01  8.00000000E-01  1.50000000E+00
  8.00000000E-01  8.00000000E-01  1.50000000E+00  8.00000000E-01  8.00000000E-01
  1.50000000E+00  8.00000000E-01  8.00000000E-01  1.50000000E+00  8.00000000E-01
  8.00000000E-01  1.50000000E+00  8.00000000E-01  8.00000000E-01  1.50000000E+00
  8.00000000E-01  8.00000000E-01  1.50000000E+00  8.00000000E-01  8.00000000E-01
  1.50000000E+00  8.00000000E-01  8.00000000E-01  1.50000000E+00  8.00000000E-01
  8.00000000E-01  1.50000000E+00  8.00000000E-01  8.00000000E-01  1.50000000E+00
  8.00000000E-01  8.00000000E-01  1.50000000E+00  8.00000000E-01  8.00000000E-01
  1.50000000E+00  8.00000000E-01  8.00000000E-01  1.50000000E+00  8.00000000E-01
  8.00000000E-01  1.50000000E+00  8.00000000E-01  8.00000000E-01  1.50000000E+00
  8.00000000E-01  8.00000000E-01  1.50000000E+00  8.00000000E-01  8.00000000E-01
  1.50000000E+00  8.00000000E-01  8.00000000E-01  1.50000000E+00  8.00000000E-01
  8.00000000E-01  1.50000000E+00  8.00000000E-01  8.00000000E-01  1.50000000E+00
  8.00000000E-01  8.00000000E-01  1.50000000E+00  8.00000000E-01  8.00000000E-01
  1.50000000E+00  8.00000000E-01  8.00000000E-01  1.50000000E+00  8.00000000E-01
  8.00000000E-01  1.50000000E+00  8.00000000E-01  8.00000000E-01  1.50000000E+00
  8.00000000E-01  8.00000000E-01  1.50000000E+00  8.00000000E-01  8.00000000E-01
  1.50000000E+00  8.00000000E-01  8.00000000E-01  1.50000000E+00  8.00000000E-01
  8.00000000E-01  1.50000000E+00  8.00000000E-01  8.00000000E-01  1.50000000E+00
  8.00000000E-01  8.00000000E-01  1.50000000E+00  8.00000000E-01  8.00000000E-01
  1.50000000E+00  8.00000000E-01  8.00000000E-01  1.50000000E+00  8.00000000E-01
  8.00000000E-01  1.50000000E+00  8.00000000E-01  8.00000000E-01  1.50000000E+00
  8.00000000E-01  8.00000000E-01  1.50000000E+00  8.00000000E-01  8.00000000E-01
  1.50000000E+00  8.00000000E-01  8.00000000E-01  1.50000000E+00  8.00000000E-01
  8.00000000E-01  1.50000000E+00  8.00000000E-01  8.00000000E-01  1.50000000E+00
  8.00000000E-01  8.00000000E-01  1.50000000E+00  8.00000000E-01  8.00000000E-01
  1.50000000E+00  8.00000000E-01  8.00000000E-01  1.50000000E+00  8.00000000E-01
  8.00000000E-01  1.50000000E+00  8.00000000E-01  8.00000000E-01  1.50000000E+00
  8.00000000E-01  8.00000000E-01  1.50000000E+00  8.00000000E-01  8.00000000E-01
  1.50000000E+00  8.00000000E-01  8.00000000E-01  1.50000000E+00  8.00000000E-01
  8.00000000E-01  1.50000000E+00  8.00000000E-01  8.00000000E-01  1.50000000E+00
  8.00000000E-01  8.00000000E-01  1.50000000E+00  8.00000000E-01  8.00000000E-01
  1.50000000E+00  8.00000000E-01  8.00000000E-01  1.50000000E+00  8.00000000E-01
  8.00000000E-01  1.50000000E+00  8.00000000E-01  8.00000000E-01  1.50000000E+00
  8.00000000E-01  8.00000000E-01  1.50000000E+00  8.00000000E-01  8.00000000E-01
  1.50000000E+00  8.00000000E-01  8.00000000E-01  1.50000000E+00  8.00000000E-01
  8.00000000E-01  1.50000000E+00  8.00000000E-01  8.00000000E-01  1.50000000E+00
  8.00000000E-01  8.00000000E-01  1.50000000E+00  8.00000000E-01  8.00000000E-01
  1.50000000E+00  8.00000000E-01  8.00000000E-01  1.50000000E+00  8.00000000E-01
  8.00000000E-01  1.50000000E+00  8.00000000E-01  8.00000000E-01  1.50000000E+00
  8.00000000E-01  8.00000000E-01  1.50000000E+00  8.00000000E-01  8.00000000E-01
  1.50000000E+00  8.00000000E-01  8.00000000E-01  1.50000000E+00  8.00000000E-01
  8.00000000E-01  1.50000000E+00  8.00000000E-01  8.00000000E-01  1.50000000E+00
  8.00000000E-01  8.00000000E-01  1.50000000E+00  8.00000000E-01  8.00000000E-01
  1.50000000E+00  8.00000000E-01  8.00000000E-01  1.50000000E+00  8.00000000E-01
  8.00000000E-01  1.50000000E+00  8.00000000E-01  8.00000000E-01  1.50000000E+00
  8.00000000E-01  8.00000000E-01  1.50000000E+00  8.00000000E-01  8.00000000E-01
  1.50000000E+00  8.00000000E-01  8.00000000E-01  1.50000000E+00  8.00000000E-01
  8.00000000E-01  1.50000000E+00  8.00000000E-01  8.00000000E-01  1.50000000E+00
  8.00000000E-01  8.00000000E-01  1.50000000E+00  8.00000000E-01  8.00000000E-01
  1.50000000E+00  8.00000000E-01  8.00000000E-01  1.50000000E+00  8.00000000E-01
  8.00000000E-01  1.50000000E+00  8.00000000E-01  8.00000000E-01  1.50000000E+00
  8.00000000E-01  8.00000000E-01  1.50000000E+00  8.00000000E-01  8.00000000E-01
  1.50000000E+00  8.00000000E-01  8.00000000E-01  1.50000000E+00  8.00000000E-01
  8.00000000E-01  1.50000000E+00  8.00000000E-01  8.00000000E-01  1.50000000E+00
  8.00000000E-01  8.00000000E-01  1.50000000E+00  8.00000000E-01  8.00000000E-01
  1.50000000E+00  8.00000000E-01  8.00000000E-01  1.50000000E+00  8.00000000E-01
  8.00000000E-01  1.50000000E+00  8.00000000E-01  8.00000000E-01  1.50000000E+00
  8.00000000E-01  8.00000000E-01  1.50000000E+00  8.00000000E-01  8.00000000E-01
  1.50000000E+00  8.00000000E-01  8.00000000E-01  1.50000000E+00  8.00000000E-01
  8.00000000E-01  1.50000000E+00  8.00000000E-01  8.00000000E-01  1.50000000E+00
  8.00000000E-01  8.00000000E-01  1.50000000E+00  8.00000000E-01  8.00000000E-01
  1.50000000E+00  8.00000000E-01  8.00000000E-01  1.50000000E+00  8.00000000E-01
  8.00000000E-01  1.50000000E+00  8.00000000E-01  8.00000000E-01  1.50000000E+00
  8.00000000E-01  8.00000000E-01  1.50000000E+00  8.00000000E-01  8.00000000E-01
  1.50000000E+00  8.00000000E-01  8.00000000E-01  1.50000000E+00  8.00000000E-01
  8.00000000E-01  1.50000000E+00  8.00000000E-01  8.00000000E-01  1.50000000E+00
  8.00000000E-01  8.00000000E-01  1.50000000E+00  8.00000000E-01  8.00000000E-01
  1.50000000E+00  8.00000000E-01  8.00000000E-01  1.50000000E+00  8.00000000E-01
  8.00000000E-01  1.50000000E+00  8.00000000E-01  8.00000000E-01  1.50000000E+00
  8.00000000E-01  8.00000000E-01  1.50000000E+00  8.00000000E-01  8.00000000E-01
  1.50000000E+00  8.00000000E-01  8.00000000E-01  1.50000000E+00  8.00000000E-01
  8.00000000E-01  1.50000000E+00  8.00000000E-01  8.00000000E-01  1.50000000E+00
  8.00000000E-01  8.00000000E-01  1.50000000E+00  8.00000000E-01  8.00000000E-01
  1.50000000E+00  8.00000000E-01  8.00000000E-01  1.50000000E+00  8.00000000E-01
  8.00000000E-01  1.50000000E+00  8.00000000E-01  8.00000000E-01  1.50000000E+00
  8.00000000E-01  8.00000000E-01  1.50000000E+00  8.00000000E-01  8.00000000E-01
  1.50000000E+00  8.00000000E-01  8.00000000E-01  1.50000000E+00  8.00000000E-01
  8.00000000E-01  1.50000000E+00  8.00000000E-01  8.00000000E-01  1.50000000E+00
  8.00000000E-01  8.00000000E-01  1.50000000E+00  8.00000000E-01  8.00000000E-01
  1.50000000E+00  8.00000000E-01  8.00000000E-01  1.50000000E+00  8.00000000E-01
  8.00000000E-01  1.50000000E+00  8.00000000E-01  8.00000000E-01  1.50000000E+00
  8.00000000E-01  8.00000000E-01  1.50000000E+00  8.00000000E-01  8.00000000E-01
  1.50000000E+00  8.00000000E-01  8.00000000E-01  1.50000000E+00  8.00000000E-01
  8.00000000E-01  1.50000000E+00  8.00000000E-01  8.00000000E-01  1.50000000E+00
  8.00000000E-01  8.00000000E-01  1.50000000E+00  8.00000000E-01  8.00000000E-01
  1.50000000E+00  8.00000000E-01  8.00000000E-01  1.50000000E+00  8.00000000E-01
  8.00000000E-01  1.50000000E+00  8.00000000E-01  8.00000000E-01  1.50000000E+00
  8.00000000E-01  8.00000000E-01  1.50000000E+00  8.00000000E-01  8.00000000E-01
  1.50000000E+00  8.00000000E-01  8.00000000E-01  1.50000000E+00  8.00000000E-01
  8.00000000E-01  1.50000000E+00  8.00000000E-01  8.00000000E-01  1.50000000E+00
  8.00000000E-01  8.00000000E-01  1.50000000E+00  8.00000000E-01  8.00000000E-01
  1.50000000E+00  8.00000000E-01  8.00000000E-01  1.50000000E+00  8.00000000E-01
  8.00000000E-01  1.50000000E+00  8.00000000E-01  8.00000000E-01  1.50000000E+00
  8.00000000E-01  8.00000000E-01  1.50000000E+00  8.00000000E-01  8.00000000E-01
  1.50000000E+00  8.00000000E-01  8.00000000E-01  1.50000000E+00  8.00000000E-01
  8.00000000E-01  1.50000000E+00  8.00000000E-01  8.00000000E-01  1.50000000E+00
  8.00000000E-01  8.00000000E-01  1.50000000E+00  8.00000000E-01  8.00000000E-01
  1.50000000E+00  8.00000000E-01  8.00000000E-01  1.50000000E+00  8.00000000E-01
  8.00000000E-01  1.50000000E+00  8.00000000E-01  8.00000000E-01  1.50000000E+00
  8.00000000E-01  8.00000000E-01  1.50000000E+00  8.00000000E-01  8.00000000E-01
  1.50000000E+00  8.00000000E-01  8.00000000E-01  1.50000000E+00  8.00000000E-01
  8.00000000E-01  1.50000000E+00  8.00000000E-01  8.00000000E-01  1.50000000E+00
  8.00000000E-01  8.00000000E-01  1.50000000E+00  8.00000000E-01  8.00000000E-01
  1.50000000E+00  8.00000000E-01  8.00000000E-01  1.50000000E+00  8.00000000E-01
  8.00000000E-01  1.50000000E+00  8.00000000E-01  8.00000000E-01  1.50000000E+00
  8.00000000E-01  8.00000000E-01  1.50000000E+00  8.00000000E-01  8.00000000E-01
  1.50000000E+00  8.00000000E-01  8.00000000E-01  1.50000000E+00  8.00000000E-01
  8.00000000E-01  1.50000000E+00  8.00000000E-01  8.00000000E-01  1.50000000E+00
  8.00000000E-01  8.00000000E-01  1.50000000E+00  8.00000000E-01  8.00000000E-01
  1.50000000E+00  8.00000000E-01  8.00000000E-01  1.50000000E+00  8.00000000E-01
  8.00000000E-01  1.50000000E+00  8.00000000E-01  8.00000000E-01  1.50000000E+00
  8.00000000E-01  8.00000000E-01  1.50000000E+00  8.00000000E-01  8.00000000E-01
  1.50000000E+00  8.00000000E-01  8.00000000E-01  1.50000000E+00  8.00000000E-01
  8.00000000E-01  1.50000000E+00  8.00000000E-01  8.00000000E-01  1.50000000E+00
  8.00000000E-01  8.00000000E-01  1.50000000E+00  8.00000000E-01  8.00000000E-01
  1.50000000E+00  8.00000000E-01  8.00000000E-01  1.50000000E+00  8.00000000E-01
  8.00000000E-01  1.50000000E+00  8.00000000E-01  8.00000000E-01  1.50000000E+00
  8.00000000E-01  8.00000000E-01  1.50000000E+00  8.00000000E-01  8.00000000E-01
  1.50000000E+00  8.00000000E-01  8.00000000E-01  1.50000000E+00  8.00000000E-01
  8.00000000E-01  1.50000000E+00  8.00000000E-01  8.00000000E-01  1.50000000E+00
  8.00000000E-01  8.00000000E-01  1.50000000E+00  8.00000000E-01  8.00000000E-01
  1.50000000E+00  8.00000000E-01  8.00000000E-01  1.50000000E+00  8.00000000E-01
  8.00000000E-01  1.50000000E+00  8.00000000E-01  8.00000000E-01  1.50000000E+00
  8.00000000E-01  8.00000000E-01  1.50000000E+00  8.00000000E-01  8.00000000E-01
  1.50000000E+00  8.00000000E-01  8.00000000E-01  1.50000000E+00  8.00000000E-01
  8.00000000E-01  1.50000000E+00  8.00000000E-01  8.00000000E-01  1.50000000E+00
  8.00000000E-01  8.00000000E-01  1.50000000E+00  8.00000000E-01  8.00000000E-01
  1.50000000E+00  8.00000000E-01  8.00000000E-01  1.50000000E+00  8.00000000E-01
  8.00000000E-01  1.50000000E+00  8.00000000E-01  8.00000000E-01  1.50000000E+00
  8.00000000E-01  8.00000000E-01  1.50000000E+00  8.00000000E-01  8.00000000E-01
  1.50000000E+00  8.00000000E-01  8.00000000E-01  1.50000000E+00  8.00000000E-01
  8.00000000E-01  1.50000000E+00  8.00000000E-01  8.00000000E-01  1.50000000E+00
  8.00000000E-01  8.00000000E-01  1.50000000E+00  8.00000000E-01  8.00000000E-01
  1.50000000E+00  8.00000000E-01  8.00000000E-01  1.50000000E+00  8.00000000E-01
  8.00000000E-01  1.50000000E+00  8.00000000E-01  8.00000000E-01  1.50000000E+00
  8.00000000E-01  8.00000000E-01  1.50000000E+00  8.00000000E-01  8.00000000E-01
  1.50000000E+00  8.00000000E-01  8.00000000E-01  1.50000000E+00  8.00000000E-01
  8.00000000E-01  1.50000000E+00  8.00000000E-01  8.00000000E-01  1.50000000E+00
  8.00000000E-01  8.00000000E-01  1.50000000E+00  8.00000000E-01  8.00000000E-01
  1.50000000E+00  8.00000000E-01  8.00000000E-01  1.50000000E+00  8.00000000E-01
  8.00000000E-01  1.50000000E+00  8.00000000E-01  8.00000000E-01  1.50000000E+00
  8.00000000E-01  8.00000000E-01  1.50000000E+00  8.00000000E-01  8.00000000E-01
  1.50000000E+00  8.00000000E-01  8.00000000E-01  1.50000000E+00  8.00000000E-01
  8.00000000E-01  1.50000000E+00  8.00000000E-01  8.00000000E-01  1.50000000E+00
  8.00000000E-01  8.00000000E-01  1.50000000E+00  8.00000000E-01  8.00000000E-01
  1.50000000E+00  8.00000000E-01  8.00000000E-01  1.50000000E+00  8.00000000E-01
  8.00000000E-01  1.50000000E+00  8.00000000E-01  8.00000000E-01  1.50000000E+00
  8.00000000E-01  8.00000000E-01  1.50000000E+00  8.00000000E-01  8.00000000E-01
  1.50000000E+00  8.00000000E-01  8.00000000E-01  1.50000000E+00  8.00000000E-01
  8.00000000E-01  1.50000000E+00  8.00000000E-01  8.00000000E-01  1.50000000E+00
  8.00000000E-01  8.00000000E-01  1.50000000E+00  8.00000000E-01  8.00000000E-01
  1.50000000E+00  8.00000000E-01  8.00000000E-01  1.50000000E+00  8.00000000E-01
  8.00000000E-01  1.50000000E+00  8.00000000E-01  8.00000000E-01  1.50000000E+00
  8.00000000E-01  8.00000000E-01  1.50000000E+00  8.00000000E-01  8.00000000E-01
  1.50000000E+00  8.00000000E-01  8.00000000E-01  1.50000000E+00  8.00000000E-01
  8.00000000E-01  1.50000000E+00  8.00000000E-01  8.00000000E-01  1.50000000E+00
  8.00000000E-01  8.00000000E-01  1.50000000E+00  8.00000000E-01  8.00000000E-01
  1.50000000E+00  8.00000000E-01  8.00000000E-01  1.50000000E+00  8.00000000E-01
  8.00000000E-01  1.50000000E+00  8.00000000E-01  8.00000000E-01  1.50000000E+00
  8.00000000E-01  8.00000000E-01  1.50000000E+00  8.00000000E-01  8.00000000E-01
  1.50000000E+00  8.00000000E-01  8.00000000E-01  1.50000000E+00  8.00000000E-01
  8.00000000E-01  1.50000000E+00  8.00000000E-01  8.00000000E-01  1.50000000E+00
  8.00000000E-01  8.00000000E-01  1.50000000E+00  8.00000000E-01  8.00000000E-01
  1.50000000E+00  8.00000000E-01  8.00000000E-01  1.50000000E+00  8.00000000E-01
  8.00000000E-01  1.50000000E+00  8.00000000E-01  8.00000000E-01  1.50000000E+00
  8.00000000E-01  8.00000000E-01  1.50000000E+00  8.00000000E-01  8.00000000E-01
  1.50000000E+00  8.00000000E-01  8.00000000E-01  1.50000000E+00  8.00000000E-01
  8.00000000E-01  1.50000000E+00  8.00000000E-01  8.00000000E-01  1.50000000E+00
  8.00000000E-01  8.00000000E-01  1.50000000E+00  8.00000000E-01  8.00000000E-01
  1.50000000E+00  8.00000000E-01  8.00000000E-01  1.50000000E+00  8.00000000E-01
  8.00000000E-01  1.50000000E+00  8.00000000E-01  8.00000000E-01  1.50000000E+00
  8.00000000E-01  8.00000000E-01  1.50000000E+00  8.00000000E-01  8.00000000E-01
  1.50000000E+00  8.00000000E-01  8.00000000E-01  1.50000000E+00  8.00000000E-01
  8.00000000E-01  1.50000000E+00  8.00000000E-01  8.00000000E-01  1.50000000E+00
  8.00000000E-01  8.00000000E-01  1.50000000E+00  8.00000000E-01  8.00000000E-01
  1.50000000E+00  8.00000000E-01  8.00000000E-01  1.50000000E+00  8.00000000E-01
  8.00000000E-01  1.50000000E+00  8.00000000E-01  8.00000000E-01  1.50000000E+00
  8.00000000E-01  8.00000000E-01  1.50000000E+00  8.00000000E-01  8.00000000E-01
  1.50000000E+00  8.00000000E-01  8.00000000E-01  1.50000000E+00  8.00000000E-01
  8.00000000E-01  1.50000000E+00  8.00000000E-01  8.00000000E-01  1.50000000E+00
  8.00000000E-01  8.00000000E-01  1.50000000E+00  8.00000000E-01  8.00000000E-01
  1.50000000E+00  8.00000000E-01  8.00000000E-01  1.50000000E+00  8.00000000E-01
  8.00000000E-01  1.50000000E+00  8.00000000E-01  8.00000000E-01  1.50000000E+00
  8.00000000E-01  8.00000000E-01  1.50000000E+00  8.00000000E-01  8.00000000E-01
  1.50000000E+00  8.00000000E-01  8.00000000E-01  1.50000000E+00  8.00000000E-01
  8.00000000E-01  1.50000000E+00  8.00000000E-01  8.00000000E-01  1.50000000E+00
  8.00000000E-01  8.00000000E-01  1.50000000E+00  8.00000000E-01  8.00000000E-01
  1.50000000E+00  8.00000000E-01  8.00000000E-01  1.50000000E+00  8.00000000E-01
  8.00000000E-01  1.50000000E+00  8.00000000E-01  8.00000000E-01  1.50000000E+00
  8.00000000E-01  8.00000000E-01  1.50000000E+00  8.00000000E-01  8.00000000E-01
  1.50000000E+00  8.00000000E-01  8.00000000E-01  1.50000000E+00  8.00000000E-01
  8.00000000E-01  1.50000000E+00  8.00000000E-01  8.00000000E-01  1.50000000E+00
  8.00000000E-01  8.00000000E-01  1.50000000E+00  8.00000000E-01  8.00000000E-01
  1.50000000E+00  8.00000000E-01  8.00000000E-01  1.50000000E+00  8.00000000E-01
  8.00000000E-01  1.50000000E+00  8.00000000E-01  8.00000000E-01  1.50000000E+00
  8.00000000E-01  8.00000000E-01  1.50000000E+00  8.00000000E-01  8.00000000E-01
  1.50000000E+00  8.00000000E-01  8.00000000E-01  1.50000000E+00  8.00000000E-01
  8.00000000E-01  1.50000000E+00  8.00000000E-01  8.00000000E-01  1.50000000E+00
  8.00000000E-01  8.00000000E-01  1.50000000E+00  8.00000000E-01  8.00000000E-01
  1.50000000E+00  8.00000000E-01  8.00000000E-01  1.50000000E+00  8.00000000E-01
  8.00000000E-01  1.50000000E+00  8.00000000E-01  8.00000000E-01  1.50000000E+00
  8.00000000E-01  8.00000000E-01  1.50000000E+00  8.00000000E-01  8.00000000E-01
  1.50000000E+00  8.00000000E-01  8.00000000E-01  1.50000000E+00  8.00000000E-01
  8.00000000E-01  1.50000000E+00  8.00000000E-01  8.00000000E-01  1.50000000E+00
  8.00000000E-01  8.00000000E-01  1.50000000E+00  8.00000000E-01  8.00000000E-01
  1.50000000E+00  8.00000000E-01  8.00000000E-01  1.50000000E+00  8.00000000E-01
  8.00000000E-01  1.50000000E+00  8.00000000E-01  8.00000000E-01  1.50000000E+00
  8.00000000E-01  8.00000000E-01  1.50000000E+00  8.00000000E-01  8.00000000E-01
  1.50000000E+00  8.00000000E-01  8.00000000E-01  1.50000000E+00  8.00000000E-01
  8.00000000E-01  1.50000000E+00  8.00000000E-01  8.00000000E-01  1.50000000E+00
  8.00000000E-01  8.00000000E-01  1.50000000E+00  8.00000000E-01  8.00000000E-01
  1.50000000E+00  8.00000000E-01  8.00000000E-01  1.50000000E+00  8.00000000E-01
  8.00000000E-01  1.50000000E+00  8.00000000E-01  8.00000000E-01  1.50000000E+00
  8.00000000E-01  8.00000000E-01  1.50000000E+00  8.00000000E-01  8.00000000E-01
  1.50000000E+00  8.00000000E-01  8.00000000E-01  1.50000000E+00  8.00000000E-01
  8.00000000E-01  1.50000000E+00  8.00000000E-01  8.00000000E-01  1.50000000E+00
  8.00000000E-01  8.00000000E-01  1.50000000E+00  8.00000000E-01  8.00000000E-01
  1.50000000E+00  8.00000000E-01  8.00000000E-01  1.50000000E+00  8.00000000E-01
  8.00000000E-01  1.50000000E+00  8.00000000E-01  8.00000000E-01  1.50000000E+00
  8.00000000E-01  8.00000000E-01  1.50000000E+00  8.00000000E-01  8.00000000E-01
  1.50000000E+00  8.00000000E-01  8.00000000E-01  1.50000000E+00  8.00000000E-01
  8.00000000E-01  1.50000000E+00  8.00000000E-01  8.00000000E-01  1.50000000E+00
  8.00000000E-01  8.00000000E-01  1.50000000E+00  8.00000000E-01  8.00000000E-01
  1.50000000E+00  8.00000000E-01  8.00000000E-01  1.50000000E+00  8.00000000E-01
  8.00000000E-01  1.50000000E+00  8.00000000E-01  8.00000000E-01  1.50000000E+00
  8.00000000E-01  8.00000000E-01  1.50000000E+00  8.00000000E-01  8.00000000E-01
  1.50000000E+00  8.00000000E-01  8.00000000E-01  1.50000000E+00  8.00000000E-01
  8.00000000E-01  1.50000000E+00  8.00000000E-01  8.00000000E-01  1.50000000E+00
  8.00000000E-01  8.00000000E-01  1.50000000E+00  8.00000000E-01  8.00000000E-01
  1.50000000E+00  8.00000000E-01  8.00000000E-01  1.50000000E+00  8.00000000E-01
  8.00000000E-01  1.50000000E+00  8.00000000E-01  8.00000000E-01  1.50000000E+00
  8.00000000E-01  8.00000000E-01  1.50000000E+00  8.00000000E-01  8.00000000E-01
  1.50000000E+00  8.00000000E-01  8.00000000E-01  1.50000000E+00  8.00000000E-01
  8.00000000E-01  1.50000000E+00  8.00000000E-01  8.00000000E-01  1.50000000E+00
  8.00000000E-01  8.00000000E-01  1.50000000E+00  8.00000000E-01  8.00000000E-01
  1.50000000E+00  8.00000000E-01  8.00000000E-01  1.50000000E+00  8.00000000E-01
  8.00000000E-01  1.50000000E+00  8.00000000E-01  8.00000000E-01  1.50000000E+00
  8.00000000E-01  8.00000000E-01  1.50000000E+00  8.00000000E-01  8.00000000E-01
  1.50000000E+00  8.00000000E-01  8.00000000E-01  1.50000000E+00  8.00000000E-01
  8.00000000E-01  1.50000000E+00  8.00000000E-01  8.00000000E-01  1.50000000E+00
  8.00000000E-01  8.00000000E-01  1.50000000E+00  8.00000000E-01  8.00000000E-01
  1.50000000E+00  8.00000000E-01  8.00000000E-01  1.50000000E+00  8.00000000E-01
  8.00000000E-01  1.50000000E+00  8.00000000E-01  8.00000000E-01  1.50000000E+00
  8.00000000E-01  8.00000000E-01  1.50000000E+00  8.00000000E-01  8.00000000E-01
  1.50000000E+00  8.00000000E-01  8.00000000E-01  1.50000000E+00  8.00000000E-01
  8.00000000E-01  1.50000000E+00  8.00000000E-01  8.00000000E-01  1.50000000E+00
  8.00000000E-01  8.00000000E-01  1.50000000E+00  8.00000000E-01  8.00000000E-01
  1.50000000E+00  8.00000000E-01  8.00000000E-01  1.50000000E+00  8.00000000E-01
  8.00000000E-01  1.50000000E+00  8.00000000E-01  8.00000000E-01  1.50000000E+00
  8.00000000E-01  8.00000000E-01  1.50000000E+00  8.00000000E-01  8.00000000E-01
  1.50000000E+00  8.00000000E-01  8.00000000E-01  1.50000000E+00  8.00000000E-01
  8.00000000E-01  1.50000000E+00  8.00000000E-01  8.00000000E-01  1.50000000E+00
  8.00000000E-01  8.00000000E-01  1.50000000E+00  8.00000000E-01  8.00000000E-01
  1.50000000E+00  8.00000000E-01  8.00000000E-01  1.50000000E+00  8.00000000E-01
  8.00000000E-01  1.50000000E+00  8.00000000E-01  8.00000000E-01  1.50000000E+00
  8.00000000E-01  8.00000000E-01  1.50000000E+00  8.00000000E-01  8.00000000E-01
  1.50000000E+00  8.00000000E-01  8.00000000E-01  1.50000000E+00  8.00000000E-01
  8.00000000E-01  1.50000000E+00  8.00000000E-01  8.00000000E-01  1.50000000E+00
  8.00000000E-01  8.00000000E-01  1.50000000E+00  8.00000000E-01  8.00000000E-01
  1.50000000E+00  8.00000000E-01  8.00000000E-01  1.50000000E+00  8.00000000E-01
  8.00000000E-01  1.50000000E+00  8.00000000E-01  8.00000000E-01  1.50000000E+00
  8.00000000E-01  8.00000000E-01  1.50000000E+00  8.00000000E-01  8.00000000E-01
  1.50000000E+00  8.00000000E-01  8.00000000E-01  1.50000000E+00  8.00000000E-01
  8.00000000E-01  1.50000000E+00  8.00000000E-01  8.00000000E-01  1.50000000E+00
  8.00000000E-01  8.00000000E-01  1.50000000E+00  8.00000000E-01  8.00000000E-01
  1.50000000E+00  8.00000000E-01  8.00000000E-01  1.50000000E+00  8.00000000E-01
  8.00000000E-01  1.50000000E+00  8.00000000E-01  8.00000000E-01  1.50000000E+00
  8.00000000E-01  8.00000000E-01  1.50000000E+00  8.00000000E-01  8.00000000E-01
  1.50000000E+00  8.00000000E-01  8.00000000E-01  1.50000000E+00  8.00000000E-01
  8.00000000E-01  1.50000000E+00  8.00000000E-01  8.00000000E-01  1.50000000E+00
  8.00000000E-01  8.00000000E-01  1.50000000E+00  8.00000000E-01  8.00000000E-01
  1.50000000E+00  8.00000000E-01  8.00000000E-01  1.50000000E+00  8.00000000E-01
  8.00000000E-01  1.50000000E+00  8.00000000E-01  8.00000000E-01  1.50000000E+00
  8.00000000E-01  8.00000000E-01  1.50000000E+00  8.00000000E-01  8.00000000E-01
  1.50000000E+00  8.00000000E-01  8.00000000E-01  1.50000000E+00  8.00000000E-01
  8.00000000E-01  1.50000000E+00  8.00000000E-01  8.00000000E-01  1.50000000E+00
  8.00000000E-01  8.00000000E-01  1.50000000E+00  8.00000000E-01  8.00000000E-01
  1.50000000E+00  8.00000000E-01  8.00000000E-01  1.50000000E+00  8.00000000E-01
  8.00000000E-01  1.50000000E+00  8.00000000E-01  8.00000000E-01  1.50000000E+00
  8.00000000E-01  8.00000000E-01  1.50000000E+00  8.00000000E-01  8.00000000E-01
  1.50000000E+00  8.00000000E-01  8.00000000E-01  1.50000000E+00  8.00000000E-01
  8.00000000E-01  1.50000000E+00  8.00000000E-01  8.00000000E-01  1.50000000E+00
  8.00000000E-01  8.00000000E-01  1.50000000E+00  8.00000000E-01  8.00000000E-01
  1.50000000E+00  8.00000000E-01  8.00000000E-01  1.50000000E+00  8.00000000E-01
  8.00000000E-01  1.50000000E+00  8.00000000E-01  8.00000000E-01  1.50000000E+00
  8.00000000E-01  8.00000000E-01  1.50000000E+00  8.00000000E-01  8.00000000E-01
  1.50000000E+00  8.00000000E-01  8.00000000E-01  1.50000000E+00  8.00000000E-01
  8.00000000E-01  1.50000000E+00  8.00000000E-01  8.00000000E-01  1.50000000E+00
  8.00000000E-01  8.00000000E-01  1.50000000E+00  8.00000000E-01  8.00000000E-01
  1.50000000E+00  8.00000000E-01  8.00000000E-01  1.50000000E+00  8.00000000E-01
  8.00000000E-01  1.50000000E+00  8.00000000E-01  8.00000000E-01  1.50000000E+00
  8.00000000E-01  8.00000000E-01  1.50000000E+00  8.00000000E-01  8.00000000E-01
  1.50000000E+00  8.00000000E-01  8.00000000E-01  1.50000000E+00  8.00000000E-01
  8.00000000E-01  1.50000000E+00  8.00000000E-01  8.00000000E-01  1.50000000E+00
  8.00000000E-01  8.00000000E-01  1.50000000E+00  8.00000000E-01  8.00000000E-01
  1.50000000E+00  8.00000000E-01  8.00000000E-01  1.50000000E+00  8.00000000E-01
  8.00000000E-01  1.50000000E+00  8.00000000E-01  8.00000000E-01  1.50000000E+00
  8.00000000E-01  8.00000000E-01  1.50000000E+00  8.00000000E-01  8.00000000E-01
  1.50000000E+00  8.00000000E-01  8.00000000E-01  1.50000000E+00  8.00000000E-01
  8.00000000E-01  1.50000000E+00  8.00000000E-01  8.00000000E-01  1.50000000E+00
  8.00000000E-01  8.00000000E-01  1.50000000E+00  8.00000000E-01  8.00000000E-01
  1.50000000E+00  8.00000000E-01  8.00000000E-01  1.50000000E+00  8.00000000E-01
  8.00000000E-01  1.50000000E+00  8.00000000E-01  8.00000000E-01  1.50000000E+00
  8.00000000E-01  8.00000000E-01  1.50000000E+00  8.00000000E-01  8.00000000E-01
  1.50000000E+00  8.00000000E-01  8.00000000E-01  1.50000000E+00  8.00000000E-01
  8.00000000E-01  1.50000000E+00  8.00000000E-01  8.00000000E-01  1.50000000E+00
  8.00000000E-01  8.00000000E-01  1.50000000E+00  8.00000000E-01  8.00000000E-01
  1.50000000E+00  8.00000000E-01  8.00000000E-01  1.50000000E+00  8.00000000E-01
  8.00000000E-01  1.50000000E+00  8.00000000E-01  8.00000000E-01  1.50000000E+00
  8.00000000E-01  8.00000000E-01  1.50000000E+00  8.00000000E-01  8.00000000E-01
  1.50000000E+00  8.00000000E-01  8.00000000E-01  1.50000000E+00  8.00000000E-01
  8.00000000E-01  1.50000000E+00  8.00000000E-01  8.00000000E-01  1.50000000E+00
  8.00000000E-01  8.00000000E-01  1.50000000E+00  8.00000000E-01  8.00000000E-01
  1.50000000E+00  8.00000000E-01  8.00000000E-01  1.50000000E+00  8.00000000E-01
  8.00000000E-01  1.50000000E+00  8.00000000E-01  8.00000000E-01  1.50000000E+00
  8.00000000E-01  8.00000000E-01  1.50000000E+00  8.00000000E-01  8.00000000E-01
  1.50000000E+00  8.00000000E-01  8.00000000E-01  1.50000000E+00  8.00000000E-01
  8.00000000E-01  1.50000000E+00  8.00000000E-01  8.00000000E-01  1.50000000E+00
  8.00000000E-01  8.00000000E-01  1.50000000E+00  8.00000000E-01  8.00000000E-01
  1.50000000E+00  8.00000000E-01  8.00000000E-01  1.50000000E+00  8.00000000E-01
  8.00000000E-01  1.50000000E+00  8.00000000E-01  8.00000000E-01  1.50000000E+00
  8.00000000E-01  8.00000000E-01  1.50000000E+00  8.00000000E-01  8.00000000E-01
  1.50000000E+00  8.00000000E-01  8.00000000E-01  1.50000000E+00  8.00000000E-01
  8.00000000E-01  1.50000000E+00  8.00000000E-01  8.00000000E-01  1.50000000E+00
  8.00000000E-01  8.00000000E-01  1.50000000E+00  8.00000000E-01  8.00000000E-01
  1.50000000E+00  8.00000000E-01  8.00000000E-01  1.50000000E+00  8.00000000E-01
  8.00000000E-01  1.50000000E+00  8.00000000E-01  8.00000000E-01  1.50000000E+00
  8.00000000E-01  8.00000000E-01  1.50000000E+00  8.00000000E-01  8.00000000E-01
  1.50000000E+00  8.00000000E-01  8.00000000E-01  1.50000000E+00  8.00000000E-01
  8.00000000E-01  1.50000000E+00  8.00000000E-01  8.00000000E-01  1.50000000E+00
  8.00000000E-01  8.00000000E-01  1.50000000E+00  8.00000000E-01  8.00000000E-01
  1.50000000E+00  8.00000000E-01  8.00000000E-01  1.50000000E+00  8.00000000E-01
  8.00000000E-01  1.50000000E+00  8.00000000E-01  8.00000000E-01  1.50000000E+00
  8.00000000E-01  8.00000000E-01  1.50000000E+00  8.00000000E-01  8.00000000E-01
  1.50000000E+00  8.00000000E-01  8.00000000E-01  1.50000000E+00  8.00000000E-01
  8.00000000E-01  1.50000000E+00  8.00000000E-01  8.00000000E-01  1.50000000E+00
  8.00000000E-01  8.00000000E-01  1.50000000E+00  8.00000000E-01  8.00000000E-01
  1.50000000E+00  8.00000000E-01  8.00000000E-01  1.50000000E+00  8.00000000E-01
  8.00000000E-01  1.50000000E+00  8.00000000E-01  8.00000000E-01  1.50000000E+00
  8.00000000E-01  8.00000000E-01  1.50000000E+00  8.00000000E-01  8.00000000E-01
  1.50000000E+00  8.00000000E-01  8.00000000E-01  1.50000000E+00  8.00000000E-01
  8.00000000E-01  1.50000000E+00  8.00000000E-01  8.00000000E-01  1.50000000E+00
  8.00000000E-01  8.00000000E-01  1.50000000E+00  8.00000000E-01  8.00000000E-01
  1.50000000E+00  8.00000000E-01  8.00000000E-01  1.50000000E+00  8.00000000E-01
  8.00000000E-01  1.50000000E+00  8.00000000E-01  8.00000000E-01  1.50000000E+00
  8.00000000E-01  8.00000000E-01  1.50000000E+00  8.00000000E-01  8.00000000E-01
  1.50000000E+00  8.00000000E-01  8.00000000E-01  1.50000000E+00  8.00000000E-01
  8.00000000E-01  1.50000000E+00  8.00000000E-01  8.00000000E-01  1.50000000E+00
  8.00000000E-01  8.00000000E-01  1.50000000E+00  8.00000000E-01  8.00000000E-01
  1.50000000E+00  8.00000000E-01  8.00000000E-01  1.50000000E+00  8.00000000E-01
  8.00000000E-01  1.50000000E+00  8.00000000E-01  8.00000000E-01  1.50000000E+00
  8.00000000E-01  8.00000000E-01  1.50000000E+00  8.00000000E-01  8.00000000E-01
  1.50000000E+00  8.00000000E-01  8.00000000E-01  1.50000000E+00  8.00000000E-01
  8.00000000E-01  1.50000000E+00  8.00000000E-01  8.00000000E-01  1.50000000E+00
  8.00000000E-01  8.00000000E-01  1.50000000E+00  8.00000000E-01  8.00000000E-01
  1.50000000E+00  8.00000000E-01  8.00000000E-01  1.50000000E+00  8.00000000E-01
  8.00000000E-01  1.50000000E+00  8.00000000E-01  8.00000000E-01  1.50000000E+00
  8.00000000E-01  8.00000000E-01  1.50000000E+00  8.00000000E-01  8.00000000E-01
  1.50000000E+00  8.00000000E-01  8.00000000E-01  1.50000000E+00  8.00000000E-01
  8.00000000E-01  1.50000000E+00  8.00000000E-01  8.00000000E-01  1.50000000E+00
  8.00000000E-01  8.00000000E-01  1.50000000E+00  8.00000000E-01  8.00000000E-01
  1.50000000E+00  8.00000000E-01  8.00000000E-01  1.50000000E+00  8.00000000E-01
  8.00000000E-01  1.50000000E+00  8.00000000E-01  8.00000000E-01  1.50000000E+00
  8.00000000E-01  8.00000000E-01  1.50000000E+00  8.00000000E-01  8.00000000E-01
  1.50000000E+00  8.00000000E-01  8.00000000E-01  1.50000000E+00  8.00000000E-01
  8.00000000E-01  1.50000000E+00  8.00000000E-01  8.00000000E-01  1.50000000E+00
  8.00000000E-01  8.00000000E-01  1.50000000E+00  8.00000000E-01  8.00000000E-01
  1.50000000E+00  8.00000000E-01  8.00000000E-01  1.50000000E+00  8.00000000E-01
  8.00000000E-01  1.50000000E+00  8.00000000E-01  8.00000000E-01  1.50000000E+00
  8.00000000E-01  8.00000000E-01  1.50000000E+00  8.00000000E-01  8.00000000E-01
  1.50000000E+00  8.00000000E-01  8.00000000E-01  1.50000000E+00  8.00000000E-01
  8.00000000E-01  1.50000000E+00  8.00000000E-01  8.00000000E-01  1.50000000E+00
  8.00000000E-01  8.00000000E-01  1.50000000E+00  8.00000000E-01  8.00000000E-01
  1.50000000E+00  8.00000000E-01  8.00000000E-01  1.50000000E+00  8.00000000E-01
  8.00000000E-01  1.50000000E+00  8.00000000E-01  8.00000000E-01  1.50000000E+00
  8.00000000E-01  8.00000000E-01  1.50000000E+00  8.00000000E-01  8.00000000E-01
  1.50000000E+00  8.00000000E-01  8.00000000E-01  1.50000000E+00  8.00000000E-01
  8.00000000E-01  1.50000000E+00  8.00000000E-01  8.00000000E-01  1.50000000E+00
  8.00000000E-01  8.00000000E-01  1.50000000E+00  8.00000000E-01  8.00000000E-01
  1.50000000E+00  8.00000000E-01  8.00000000E-01  1.50000000E+00  8.00000000E-01
  8.00000000E-01  1.50000000E+00  8.00000000E-01  8.00000000E-01  1.50000000E+00
  8.00000000E-01  8.00000000E-01  1.50000000E+00  8.00000000E-01  8.00000000E-01
  1.50000000E+00  8.00000000E-01  8.00000000E-01  1.50000000E+00  8.00000000E-01
  8.00000000E-01  1.50000000E+00  8.00000000E-01  8.00000000E-01  1.50000000E+00
  8.00000000E-01  8.00000000E-01  1.50000000E+00  8.00000000E-01  8.00000000E-01
  1.50000000E+00  8.00000000E-01  8.00000000E-01  1.50000000E+00  8.00000000E-01
  8.00000000E-01  1.50000000E+00  8.00000000E-01  8.00000000E-01  1.50000000E+00
  8.00000000E-01  8.00000000E-01  1.50000000E+00  8.00000000E-01  8.00000000E-01
  1.50000000E+00  8.00000000E-01  8.00000000E-01  1.50000000E+00  8.00000000E-01
  8.00000000E-01  1.50000000E+00  8.00000000E-01  8.00000000E-01  1.50000000E+00
  8.00000000E-01  8.00000000E-01  1.50000000E+00  8.00000000E-01  8.00000000E-01
  1.50000000E+00  8.00000000E-01  8.00000000E-01  1.50000000E+00  8.00000000E-01
  8.00000000E-01  1.50000000E+00  8.00000000E-01  8.00000000E-01  1.50000000E+00
  8.00000000E-01  8.00000000E-01  1.50000000E+00  8.00000000E-01  8.00000000E-01
  1.50000000E+00  8.00000000E-01  8.00000000E-01  1.50000000E+00  8.00000000E-01
  8.00000000E-01  1.50000000E+00  8.00000000E-01  8.00000000E-01  1.50000000E+00
  8.00000000E-01  8.00000000E-01  1.50000000E+00  8.00000000E-01  8.00000000E-01
  1.50000000E+00  8.00000000E-01  8.00000000E-01  1.50000000E+00  8.00000000E-01
  8.00000000E-01  1.50000000E+00  8.00000000E-01  8.00000000E-01  1.50000000E+00
  8.00000000E-01  8.00000000E-01  1.50000000E+00  8.00000000E-01  8.00000000E-01
  1.50000000E+00  8.00000000E-01  8.00000000E-01  1.50000000E+00  8.00000000E-01
  8.00000000E-01  1.50000000E+00  8.00000000E-01  8.00000000E-01  1.50000000E+00
  8.00000000E-01  8.00000000E-01  1.50000000E+00  8.00000000E-01  8.00000000E-01
  1.50000000E+00  8.00000000E-01  8.00000000E-01  1.50000000E+00  8.00000000E-01
  8.00000000E-01  1.50000000E+00  8.00000000E-01  8.00000000E-01  1.50000000E+00
  8.00000000E-01  8.00000000E-01  1.50000000E+00  8.00000000E-01  8.00000000E-01
  1.50000000E+00  8.00000000E-01  8.00000000E-01  1.50000000E+00  8.00000000E-01
  8.00000000E-01  1.50000000E+00  8.00000000E-01  8.00000000E-01  1.50000000E+00
  8.00000000E-01  8.00000000E-01  1.50000000E+00  8.00000000E-01  8.00000000E-01
  1.50000000E+00  8.00000000E-01  8.00000000E-01  1.50000000E+00  8.00000000E-01
  8.00000000E-01  1.50000000E+00  8.00000000E-01  8.00000000E-01  1.50000000E+00
  8.00000000E-01  8.00000000E-01  1.50000000E+00  8.00000000E-01  8.00000000E-01
  1.50000000E+00  8.00000000E-01  8.00000000E-01  1.50000000E+00  8.00000000E-01
  8.00000000E-01  1.50000000E+00  8.00000000E-01  8.00000000E-01  1.50000000E+00
  8.00000000E-01  8.00000000E-01  1.50000000E+00  8.00000000E-01  8.00000000E-01
  1.50000000E+00  8.00000000E-01  8.00000000E-01  1.50000000E+00  8.00000000E-01
  8.00000000E-01  1.50000000E+00  8.00000000E-01  8.00000000E-01  1.50000000E+00
  8.00000000E-01  8.00000000E-01  1.50000000E+00  8.00000000E-01  8.00000000E-01
  1.50000000E+00  8.00000000E-01  8.00000000E-01  1.50000000E+00  8.00000000E-01
  8.00000000E-01  1.50000000E+00  8.00000000E-01  8.00000000E-01  1.50000000E+00
  8.00000000E-01  8.00000000E-01  1.50000000E+00  8.00000000E-01  8.00000000E-01
  1.50000000E+00  8.00000000E-01  8.00000000E-01  1.50000000E+00  8.00000000E-01
  8.00000000E-01  1.50000000E+00  8.00000000E-01  8.00000000E-01  1.50000000E+00
  8.00000000E-01  8.00000000E-01  1.50000000E+00  8.00000000E-01  8.00000000E-01
  1.50000000E+00  8.00000000E-01  8.00000000E-01  1.50000000E+00  8.00000000E-01
  8.00000000E-01  1.50000000E+00  8.00000000E-01  8.00000000E-01  1.50000000E+00
  8.00000000E-01  8.00000000E-01  1.50000000E+00  8.00000000E-01  8.00000000E-01
  1.50000000E+00  8.00000000E-01  8.00000000E-01  1.50000000E+00  8.00000000E-01
  8.00000000E-01  1.50000000E+00  8.00000000E-01  8.00000000E-01  1.50000000E+00
  8.00000000E-01  8.00000000E-01  1.50000000E+00  8.00000000E-01  8.00000000E-01
  1.50000000E+00  8.00000000E-01  8.00000000E-01  1.50000000E+00  8.00000000E-01
  8.00000000E-01  1.50000000E+00  8.00000000E-01  8.00000000E-01  1.50000000E+00
  8.00000000E-01  8.00000000E-01  1.50000000E+00  8.00000000E-01  8.00000000E-01
  1.50000000E+00  8.00000000E-01  8.00000000E-01  1.50000000E+00  8.00000000E-01
  8.00000000E-01  1.50000000E+00  8.00000000E-01  8.00000000E-01  1.50000000E+00
  8.00000000E-01  8.00000000E-01  1.50000000E+00  8.00000000E-01  8.00000000E-01
  1.50000000E+00  8.00000000E-01  8.00000000E-01  1.50000000E+00  8.00000000E-01
  8.00000000E-01  1.50000000E+00  8.00000000E-01  8.00000000E-01  1.50000000E+00
  8.00000000E-01  8.00000000E-01  1.50000000E+00  8.00000000E-01  8.00000000E-01
  1.50000000E+00  8.00000000E-01  8.00000000E-01  1.50000000E+00  8.00000000E-01
  8.00000000E-01  1.50000000E+00  8.00000000E-01  8.00000000E-01  1.50000000E+00
  8.00000000E-01  8.00000000E-01  1.50000000E+00  8.00000000E-01  8.00000000E-01
  1.50000000E+00  8.00000000E-01  8.00000000E-01  1.50000000E+00  8.00000000E-01
  8.00000000E-01  1.50000000E+00  8.00000000E-01  8.00000000E-01  1.50000000E+00
  8.00000000E-01  8.00000000E-01  1.50000000E+00  8.00000000E-01  8.00000000E-01
  1.50000000E+00  8.00000000E-01  8.00000000E-01  1.50000000E+00  8.00000000E-01
  8.00000000E-01  1.50000000E+00  8.00000000E-01  8.00000000E-01  1.50000000E+00
  8.00000000E-01  8.00000000E-01  1.50000000E+00  8.00000000E-01  8.00000000E-01
  1.50000000E+00  8.00000000E-01  8.00000000E-01  1.50000000E+00  8.00000000E-01
  8.00000000E-01  1.50000000E+00  8.00000000E-01  8.00000000E-01  1.50000000E+00
  8.00000000E-01  8.00000000E-01  1.50000000E+00  8.00000000E-01  8.00000000E-01
  1.50000000E+00  8.00000000E-01  8.00000000E-01  1.50000000E+00  8.00000000E-01
  8.00000000E-01  1.50000000E+00  8.00000000E-01  8.00000000E-01  1.50000000E+00
  8.00000000E-01  8.00000000E-01  1.50000000E+00  8.00000000E-01  8.00000000E-01
  1.50000000E+00  8.00000000E-01  8.00000000E-01  1.50000000E+00  8.00000000E-01
  8.00000000E-01  1.50000000E+00  8.00000000E-01  8.00000000E-01  1.50000000E+00
  8.00000000E-01  8.00000000E-01  1.50000000E+00  8.00000000E-01  8.00000000E-01
  1.50000000E+00  8.00000000E-01  8.00000000E-01  1.50000000E+00  8.00000000E-01
  8.00000000E-01  1.50000000E+00  8.00000000E-01  8.00000000E-01  1.50000000E+00
  8.00000000E-01  8.00000000E-01  1.50000000E+00  8.00000000E-01  8.00000000E-01
  1.50000000E+00  8.00000000E-01  8.00000000E-01  1.50000000E+00  8.00000000E-01
  8.00000000E-01  1.50000000E+00  8.00000000E-01  8.00000000E-01  1.50000000E+00
  8.00000000E-01  8.00000000E-01  1.50000000E+00  8.00000000E-01  8.00000000E-01
  1.50000000E+00  8.00000000E-01  8.00000000E-01  1.50000000E+00  8.00000000E-01
  8.00000000E-01  1.50000000E+00  8.00000000E-01  8.00000000E-01  1.50000000E+00
  8.00000000E-01  8.00000000E-01  1.50000000E+00  8.00000000E-01  8.00000000E-01
  1.50000000E+00  8.00000000E-01  8.00000000E-01  1.50000000E+00  8.00000000E-01
  8.00000000E-01  1.50000000E+00  8.00000000E-01  8.00000000E-01  1.50000000E+00
  8.00000000E-01  8.00000000E-01  1.50000000E+00  8.00000000E-01  8.00000000E-01
  1.50000000E+00  8.00000000E-01  8.00000000E-01  1.50000000E+00  8.00000000E-01
  8.00000000E-01  1.50000000E+00  8.00000000E-01  8.00000000E-01  1.50000000E+00
  8.00000000E-01  8.00000000E-01  1.50000000E+00  8.00000000E-01  8.00000000E-01
  1.50000000E+00  8.00000000E-01  8.00000000E-01  1.50000000E+00  8.00000000E-01
  8.00000000E-01  1.50000000E+00  8.00000000E-01  8.00000000E-01  1.50000000E+00
  8.00000000E-01  8.00000000E-01  1.50000000E+00  8.00000000E-01  8.00000000E-01
  1.50000000E+00  8.00000000E-01  8.00000000E-01  1.50000000E+00  8.00000000E-01
  8.00000000E-01  1.50000000E+00  8.00000000E-01  8.00000000E-01  1.50000000E+00
  8.00000000E-01  8.00000000E-01  1.50000000E+00  8.00000000E-01  8.00000000E-01
  1.50000000E+00  8.00000000E-01  8.00000000E-01  1.50000000E+00  8.00000000E-01
  8.00000000E-01  1.50000000E+00  8.00000000E-01  8.00000000E-01  1.50000000E+00
  8.00000000E-01  8.00000000E-01  1.50000000E+00  8.00000000E-01  8.00000000E-01
  1.50000000E+00  8.00000000E-01  8.00000000E-01  1.50000000E+00  8.00000000E-01
  8.00000000E-01  1.50000000E+00  8.00000000E-01  8.00000000E-01  1.50000000E+00
  8.00000000E-01  8.00000000E-01  1.50000000E+00  8.00000000E-01  8.00000000E-01
  1.50000000E+00  8.00000000E-01  8.00000000E-01  1.50000000E+00  8.00000000E-01
  8.00000000E-01  1.50000000E+00  8.00000000E-01  8.00000000E-01  1.50000000E+00
  8.00000000E-01  8.00000000E-01  1.50000000E+00  8.00000000E-01  8.00000000E-01
  1.50000000E+00  8.00000000E-01  8.00000000E-01  1.50000000E+00  8.00000000E-01
  8.00000000E-01  1.50000000E+00  8.00000000E-01  8.00000000E-01  1.50000000E+00
  8.00000000E-01  8.00000000E-01  1.50000000E+00  8.00000000E-01  8.00000000E-01
  1.50000000E+00  8.00000000E-01  8.00000000E-01  1.50000000E+00  8.00000000E-01
  8.00000000E-01  1.50000000E+00  8.00000000E-01  8.00000000E-01  1.50000000E+00
  8.00000000E-01  8.00000000E-01  1.50000000E+00  8.00000000E-01  8.00000000E-01
  1.50000000E+00  8.00000000E-01  8.00000000E-01  1.50000000E+00  8.00000000E-01
  8.00000000E-01  1.50000000E+00  8.00000000E-01  8.00000000E-01  1.50000000E+00
  8.00000000E-01  8.00000000E-01  1.50000000E+00  8.00000000E-01  8.00000000E-01
  1.50000000E+00  8.00000000E-01  8.00000000E-01  1.50000000E+00  8.00000000E-01
  8.00000000E-01  1.50000000E+00  8.00000000E-01  8.00000000E-01  1.50000000E+00
  8.00000000E-01  8.00000000E-01  1.50000000E+00  8.00000000E-01  8.00000000E-01
  1.50000000E+00  8.00000000E-01  8.00000000E-01  1.50000000E+00  8.00000000E-01
  8.00000000E-01  1.50000000E+00  8.00000000E-01  8.00000000E-01  1.50000000E+00
  8.00000000E-01  8.00000000E-01  1.50000000E+00  8.00000000E-01  8.00000000E-01
  1.50000000E+00  8.00000000E-01  8.00000000E-01  1.50000000E+00  8.00000000E-01
  8.00000000E-01  1.50000000E+00  8.00000000E-01  8.00000000E-01  1.50000000E+00
  8.00000000E-01  8.00000000E-01  1.50000000E+00  8.00000000E-01  8.00000000E-01
  1.50000000E+00  8.00000000E-01  8.00000000E-01  1.50000000E+00  8.00000000E-01
  8.00000000E-01  1.50000000E+00  8.00000000E-01  8.00000000E-01  1.50000000E+00
  8.00000000E-01  8.00000000E-01  1.50000000E+00  8.00000000E-01  8.00000000E-01
  1.50000000E+00  8.00000000E-01  8.00000000E-01  1.50000000E+00  8.00000000E-01
  8.00000000E-01  1.50000000E+00  8.00000000E-01  8.00000000E-01  1.50000000E+00
  8.00000000E-01  8.00000000E-01  1.50000000E+00  8.00000000E-01  8.00000000E-01
  1.50000000E+00  8.00000000E-01  8.00000000E-01  1.50000000E+00  8.00000000E-01
  8.00000000E-01  1.50000000E+00  8.00000000E-01  8.00000000E-01  1.50000000E+00
  8.00000000E-01  8.00000000E-01  1.50000000E+00  8.00000000E-01  8.00000000E-01
  1.50000000E+00  8.00000000E-01  8.00000000E-01  1.50000000E+00  8.00000000E-01
  8.00000000E-01  1.50000000E+00  8.00000000E-01  8.00000000E-01  1.50000000E+00
  8.00000000E-01  8.00000000E-01  1.50000000E+00  8.00000000E-01  8.00000000E-01
  1.50000000E+00  8.00000000E-01  8.00000000E-01  1.50000000E+00  8.00000000E-01
  8.00000000E-01  1.50000000E+00  8.00000000E-01  8.00000000E-01  1.50000000E+00
  8.00000000E-01  8.00000000E-01  1.50000000E+00  8.00000000E-01  8.00000000E-01
  1.50000000E+00  8.00000000E-01  8.00000000E-01  1.50000000E+00  8.00000000E-01
  8.00000000E-01  1.50000000E+00  8.00000000E-01  8.00000000E-01  1.50000000E+00
  8.00000000E-01  8.00000000E-01  1.50000000E+00  8.00000000E-01  8.00000000E-01
  1.50000000E+00  8.00000000E-01  8.00000000E-01  1.50000000E+00  8.00000000E-01
  8.00000000E-01  1.50000000E+00  8.00000000E-01  8.00000000E-01  1.50000000E+00
  8.00000000E-01  8.00000000E-01  1.50000000E+00  8.00000000E-01  8.00000000E-01
  1.50000000E+00  8.00000000E-01  8.00000000E-01  1.50000000E+00  8.00000000E-01
  8.00000000E-01  1.50000000E+00  8.00000000E-01  8.00000000E-01  1.50000000E+00
  8.00000000E-01  8.00000000E-01  1.50000000E+00  8.00000000E-01  8.00000000E-01
  1.50000000E+00  8.00000000E-01  8.00000000E-01  1.50000000E+00  8.00000000E-01
  8.00000000E-01  1.50000000E+00  8.00000000E-01  8.00000000E-01  1.50000000E+00
  8.00000000E-01  8.00000000E-01  1.50000000E+00  8.00000000E-01  8.00000000E-01
  1.50000000E+00  8.00000000E-01  8.00000000E-01  1.50000000E+00  8.00000000E-01
  8.00000000E-01  1.50000000E+00  8.00000000E-01  8.00000000E-01  1.50000000E+00
  8.00000000E-01  8.00000000E-01  1.50000000E+00  8.00000000E-01  8.00000000E-01
  1.50000000E+00  8.00000000E-01  8.00000000E-01  1.50000000E+00  8.00000000E-01
  8.00000000E-01  1.50000000E+00  8.00000000E-01  8.00000000E-01  1.50000000E+00
  8.00000000E-01  8.00000000E-01  1.50000000E+00  8.00000000E-01  8.00000000E-01
  1.50000000E+00  8.00000000E-01  8.00000000E-01  1.50000000E+00  8.00000000E-01
  8.00000000E-01  1.50000000E+00  8.00000000E-01  8.00000000E-01  1.50000000E+00
  8.00000000E-01  8.00000000E-01  1.50000000E+00  8.00000000E-01  8.00000000E-01
  1.50000000E+00  8.00000000E-01  8.00000000E-01  1.50000000E+00  8.00000000E-01
  8.00000000E-01  1.50000000E+00  8.00000000E-01  8.00000000E-01  1.50000000E+00
  8.00000000E-01  8.00000000E-01  1.50000000E+00  8.00000000E-01  8.00000000E-01
  1.50000000E+00  8.00000000E-01  8.00000000E-01  1.50000000E+00  8.00000000E-01
  8.00000000E-01  1.50000000E+00  8.00000000E-01  8.00000000E-01  1.50000000E+00
  8.00000000E-01  8.00000000E-01  1.50000000E+00  8.00000000E-01  8.00000000E-01
  1.50000000E+00  8.00000000E-01  8.00000000E-01  1.50000000E+00  8.00000000E-01
  8.00000000E-01  1.50000000E+00  8.00000000E-01  8.00000000E-01  1.50000000E+00
  8.00000000E-01  8.00000000E-01  1.50000000E+00  8.00000000E-01  8.00000000E-01
  1.50000000E+00  8.00000000E-01  8.00000000E-01  1.50000000E+00  8.00000000E-01
  8.00000000E-01  1.50000000E+00  8.00000000E-01  8.00000000E-01  1.50000000E+00
  8.00000000E-01  8.00000000E-01  1.50000000E+00  8.00000000E-01  8.00000000E-01
  1.50000000E+00  8.00000000E-01  8.00000000E-01  1.50000000E+00  8.00000000E-01
  8.00000000E-01  1.50000000E+00  8.00000000E-01  8.00000000E-01  1.50000000E+00
  8.00000000E-01  8.00000000E-01  1.50000000E+00  8.00000000E-01  8.00000000E-01
  1.50000000E+00  8.00000000E-01  8.00000000E-01  1.50000000E+00  8.00000000E-01
  8.00000000E-01  1.50000000E+00  8.00000000E-01  8.00000000E-01  1.50000000E+00
  8.00000000E-01  8.00000000E-01  1.50000000E+00  8.00000000E-01  8.00000000E-01
  1.50000000E+00  8.00000000E-01  8.00000000E-01  1.50000000E+00  8.00000000E-01
  8.00000000E-01  1.50000000E+00  8.00000000E-01  8.00000000E-01  1.50000000E+00
  8.00000000E-01  8.00000000E-01  1.50000000E+00  8.00000000E-01  8.00000000E-01
  1.50000000E+00  8.00000000E-01  8.00000000E-01  1.50000000E+00  8.00000000E-01
  8.00000000E-01  1.50000000E+00  8.00000000E-01  8.00000000E-01  1.50000000E+00
  8.00000000E-01  8.00000000E-01  1.50000000E+00  8.00000000E-01  8.00000000E-01
  1.50000000E+00  8.00000000E-01  8.00000000E-01  1.50000000E+00  8.00000000E-01
  8.00000000E-01  1.50000000E+00  8.00000000E-01  8.00000000E-01  1.50000000E+00
  8.00000000E-01  8.00000000E-01  1.50000000E+00  8.00000000E-01  8.00000000E-01
  1.50000000E+00  8.00000000E-01  8.00000000E-01  1.50000000E+00  8.00000000E-01
  8.00000000E-01  1.50000000E+00  8.00000000E-01  8.00000000E-01  1.50000000E+00
  8.00000000E-01  8.00000000E-01  1.50000000E+00  8.00000000E-01  8.00000000E-01
  1.50000000E+00  8.00000000E-01  8.00000000E-01  1.50000000E+00  8.00000000E-01
  8.00000000E-01  1.50000000E+00  8.00000000E-01  8.00000000E-01  1.50000000E+00
  8.00000000E-01  8.00000000E-01  1.50000000E+00  8.00000000E-01  8.00000000E-01
  1.50000000E+00  8.00000000E-01  8.00000000E-01  1.50000000E+00  8.00000000E-01
  8.00000000E-01  1.50000000E+00  8.00000000E-01  8.00000000E-01  1.50000000E+00
  8.00000000E-01  8.00000000E-01  1.50000000E+00  8.00000000E-01  8.00000000E-01
  1.50000000E+00  8.00000000E-01  8.00000000E-01  1.50000000E+00  8.00000000E-01
  8.00000000E-01  1.50000000E+00  8.00000000E-01  8.00000000E-01  1.50000000E+00
  8.00000000E-01  8.00000000E-01  1.50000000E+00  8.00000000E-01  8.00000000E-01
  1.50000000E+00  8.00000000E-01  8.00000000E-01  1.50000000E+00  8.00000000E-01
  8.00000000E-01  1.50000000E+00  8.00000000E-01  8.00000000E-01  1.50000000E+00
  8.00000000E-01  8.00000000E-01  1.50000000E+00  8.00000000E-01  8.00000000E-01
  1.50000000E+00  8.00000000E-01  8.00000000E-01  1.50000000E+00  8.00000000E-01
  8.00000000E-01  1.50000000E+00  8.00000000E-01  8.00000000E-01  1.50000000E+00
  8.00000000E-01  8.00000000E-01  1.50000000E+00  8.00000000E-01  8.00000000E-01
  1.50000000E+00  8.00000000E-01  8.00000000E-01  1.50000000E+00  8.00000000E-01
  8.00000000E-01  1.50000000E+00  8.00000000E-01  8.00000000E-01  1.50000000E+00
  8.00000000E-01  8.00000000E-01  1.50000000E+00  8.00000000E-01  8.00000000E-01
  1.50000000E+00  8.00000000E-01  8.00000000E-01  1.50000000E+00  8.00000000E-01
  8.00000000E-01  1.50000000E+00  8.00000000E-01  8.00000000E-01  1.50000000E+00
  8.00000000E-01  8.00000000E-01  1.50000000E+00  8.00000000E-01  8.00000000E-01
  1.50000000E+00  8.00000000E-01  8.00000000E-01  1.50000000E+00  8.00000000E-01
  8.00000000E-01  1.50000000E+00  8.00000000E-01  8.00000000E-01  1.50000000E+00
  8.00000000E-01  8.00000000E-01  1.50000000E+00  8.00000000E-01  8.00000000E-01
  1.50000000E+00  8.00000000E-01  8.00000000E-01  1.50000000E+00  8.00000000E-01
  8.00000000E-01  1.50000000E+00  8.00000000E-01  8.00000000E-01  1.50000000E+00
  8.00000000E-01  8.00000000E-01  1.50000000E+00  8.00000000E-01  8.00000000E-01
  1.50000000E+00  8.00000000E-01  8.00000000E-01  1.50000000E+00  8.00000000E-01
  8.00000000E-01  1.50000000E+00  8.00000000E-01  8.00000000E-01  1.50000000E+00
  8.00000000E-01  8.00000000E-01  1.50000000E+00  8.00000000E-01  8.00000000E-01
  1.50000000E+00  8.00000000E-01  8.00000000E-01  1.50000000E+00  8.00000000E-01
  8.00000000E-01  1.50000000E+00  8.00000000E-01  8.00000000E-01  1.50000000E+00
  8.00000000E-01  8.00000000E-01  1.50000000E+00  8.00000000E-01  8.00000000E-01
  1.50000000E+00  8.00000000E-01  8.00000000E-01  1.50000000E+00  8.00000000E-01
  8.00000000E-01  1.50000000E+00  8.00000000E-01  8.00000000E-01  1.50000000E+00
  8.00000000E-01  8.00000000E-01  1.50000000E+00  8.00000000E-01  8.00000000E-01
  1.50000000E+00  8.00000000E-01  8.00000000E-01  1.50000000E+00  8.00000000E-01
  8.00000000E-01  1.50000000E+00  8.00000000E-01  8.00000000E-01  1.50000000E+00
  8.00000000E-01  8.00000000E-01  1.50000000E+00  8.00000000E-01  8.00000000E-01
  1.50000000E+00  8.00000000E-01  8.00000000E-01  1.50000000E+00  8.00000000E-01
  8.00000000E-01  1.50000000E+00  8.00000000E-01  8.00000000E-01  1.50000000E+00
  8.00000000E-01  8.00000000E-01  1.50000000E+00  8.00000000E-01  8.00000000E-01
  1.50000000E+00  8.00000000E-01  8.00000000E-01  1.50000000E+00  8.00000000E-01
  8.00000000E-01  1.50000000E+00  8.00000000E-01  8.00000000E-01  1.50000000E+00
  8.00000000E-01  8.00000000E-01  1.50000000E+00  8.00000000E-01  8.00000000E-01
  1.50000000E+00  8.00000000E-01  8.00000000E-01  1.50000000E+00  8.00000000E-01
  8.00000000E-01  1.50000000E+00  8.00000000E-01  8.00000000E-01  1.50000000E+00
  8.00000000E-01  8.00000000E-01  1.50000000E+00  8.00000000E-01  8.00000000E-01
  1.50000000E+00  8.00000000E-01  8.00000000E-01  1.50000000E+00  8.00000000E-01
  8.00000000E-01  1.50000000E+00  8.00000000E-01  8.00000000E-01  1.50000000E+00
  8.00000000E-01  8.00000000E-01  1.50000000E+00  8.00000000E-01  8.00000000E-01
  1.50000000E+00  8.00000000E-01  8.00000000E-01  1.50000000E+00  8.00000000E-01
  8.00000000E-01  1.50000000E+00  8.00000000E-01  8.00000000E-01  1.50000000E+00
  8.00000000E-01  8.00000000E-01  1.50000000E+00  8.00000000E-01  8.00000000E-01
  1.50000000E+00  8.00000000E-01  8.00000000E-01  1.50000000E+00  8.00000000E-01
  8.00000000E-01  1.50000000E+00  8.00000000E-01  8.00000000E-01  1.50000000E+00
  8.00000000E-01  8.00000000E-01  1.50000000E+00  8.00000000E-01  8.00000000E-01
  1.50000000E+00  8.00000000E-01  8.00000000E-01  1.50000000E+00  8.00000000E-01
  8.00000000E-01  1.50000000E+00  8.00000000E-01  8.00000000E-01  1.50000000E+00
  8.00000000E-01  8.00000000E-01  1.50000000E+00  8.00000000E-01  8.00000000E-01
  1.50000000E+00  8.00000000E-01  8.00000000E-01  1.50000000E+00  8.00000000E-01
  8.00000000E-01  1.50000000E+00  8.00000000E-01  8.00000000E-01  1.50000000E+00
  8.00000000E-01  8.00000000E-01  1.50000000E+00  8.00000000E-01  8.00000000E-01
  1.50000000E+00  8.00000000E-01  8.00000000E-01  1.50000000E+00  8.00000000E-01
  8.00000000E-01  1.50000000E+00  8.00000000E-01  8.00000000E-01  1.50000000E+00
  8.00000000E-01  8.00000000E-01  1.50000000E+00  8.00000000E-01  8.00000000E-01
  1.50000000E+00  8.00000000E-01  8.00000000E-01  1.50000000E+00  8.00000000E-01
  8.00000000E-01  1.50000000E+00  8.00000000E-01  8.00000000E-01  1.50000000E+00
  8.00000000E-01  8.00000000E-01  1.50000000E+00  8.00000000E-01  8.00000000E-01
  1.50000000E+00  8.00000000E-01  8.00000000E-01  1.50000000E+00  8.00000000E-01
  8.00000000E-01  1.50000000E+00  8.00000000E-01  8.00000000E-01  1.50000000E+00
  8.00000000E-01  8.00000000E-01  1.50000000E+00  8.00000000E-01  8.00000000E-01
  1.50000000E+00  8.00000000E-01  8.00000000E-01  1.50000000E+00  8.00000000E-01
  8.00000000E-01  1.50000000E+00  8.00000000E-01  8.00000000E-01  1.50000000E+00
  8.00000000E-01  8.00000000E-01  1.50000000E+00  8.00000000E-01  8.00000000E-01
  1.50000000E+00  8.00000000E-01  8.00000000E-01  1.50000000E+00  8.00000000E-01
  8.00000000E-01  1.50000000E+00  8.00000000E-01  8.00000000E-01  1.50000000E+00
  8.00000000E-01  8.00000000E-01  1.50000000E+00  8.00000000E-01  8.00000000E-01
  1.50000000E+00  8.00000000E-01  8.00000000E-01  1.50000000E+00  8.00000000E-01
  8.00000000E-01  1.50000000E+00  8.00000000E-01  8.00000000E-01  1.50000000E+00
  8.00000000E-01  8.00000000E-01  1.50000000E+00  8.00000000E-01  8.00000000E-01
  1.50000000E+00  8.00000000E-01  8.00000000E-01  1.50000000E+00  8.00000000E-01
  8.00000000E-01  1.50000000E+00  8.00000000E-01  8.00000000E-01  1.50000000E+00
  8.00000000E-01  8.00000000E-01  1.50000000E+00  8.00000000E-01  8.00000000E-01
  1.50000000E+00  8.00000000E-01  8.00000000E-01  1.50000000E+00  8.00000000E-01
  8.00000000E-01  1.50000000E+00  8.00000000E-01  8.00000000E-01  1.50000000E+00
  8.00000000E-01  8.00000000E-01  1.50000000E+00  8.00000000E-01  8.00000000E-01
  1.50000000E+00  8.00000000E-01  8.00000000E-01  1.50000000E+00  8.00000000E-01
  8.00000000E-01  1.50000000E+00  8.00000000E-01  8.00000000E-01  1.50000000E+00
  8.00000000E-01  8.00000000E-01  1.50000000E+00  8.00000000E-01  8.00000000E-01
  1.50000000E+00  8.00000000E-01  8.00000000E-01  1.50000000E+00  8.00000000E-01
  8.00000000E-01  1.50000000E+00  8.00000000E-01  8.00000000E-01  1.50000000E+00
  8.00000000E-01  8.00000000E-01  1.50000000E+00  8.00000000E-01  8.00000000E-01
  1.50000000E+00  8.00000000E-01  8.00000000E-01  1.50000000E+00  8.00000000E-01
  8.00000000E-01  1.50000000E+00  8.00000000E-01  8.00000000E-01  1.50000000E+00
  8.00000000E-01  8.00000000E-01  1.50000000E+00  8.00000000E-01  8.00000000E-01
  1.50000000E+00  8.00000000E-01  8.00000000E-01  1.50000000E+00  8.00000000E-01
  8.00000000E-01  1.50000000E+00  8.00000000E-01  8.00000000E-01  1.50000000E+00
  8.00000000E-01  8.00000000E-01  1.50000000E+00  8.00000000E-01  8.00000000E-01
  1.50000000E+00  8.00000000E-01  8.00000000E-01  1.50000000E+00  8.00000000E-01
  8.00000000E-01  1.50000000E+00  8.00000000E-01  8.00000000E-01  1.50000000E+00
  8.00000000E-01  8.00000000E-01  1.50000000E+00  8.00000000E-01  8.00000000E-01
  1.50000000E+00  8.00000000E-01  8.00000000E-01  1.50000000E+00  8.00000000E-01
  8.00000000E-01  1.50000000E+00  8.00000000E-01  8.00000000E-01  1.50000000E+00
  8.00000000E-01  8.00000000E-01  1.50000000E+00  8.00000000E-01  8.00000000E-01
  1.50000000E+00  8.00000000E-01  8.00000000E-01  1.50000000E+00  8.00000000E-01
  8.00000000E-01  1.50000000E+00  8.00000000E-01  8.00000000E-01  1.50000000E+00
  8.00000000E-01  8.00000000E-01  1.50000000E+00  8.00000000E-01  8.00000000E-01
  1.50000000E+00  8.00000000E-01  8.00000000E-01  1.50000000E+00  8.00000000E-01
  8.00000000E-01  1.50000000E+00  8.00000000E-01  8.00000000E-01  1.50000000E+00
  8.00000000E-01  8.00000000E-01  1.50000000E+00  8.00000000E-01  8.00000000E-01
  1.50000000E+00  8.00000000E-01  8.00000000E-01  1.50000000E+00  8.00000000E-01
  8.00000000E-01  1.50000000E+00  8.00000000E-01  8.00000000E-01  1.50000000E+00
  8.00000000E-01  8.00000000E-01  1.50000000E+00  8.00000000E-01  8.00000000E-01
  1.50000000E+00  8.00000000E-01  8.00000000E-01  1.50000000E+00  8.00000000E-01
  8.00000000E-01  1.50000000E+00  8.00000000E-01  8.00000000E-01  1.50000000E+00
  8.00000000E-01  8.00000000E-01  1.50000000E+00  8.00000000E-01  8.00000000E-01
  1.50000000E+00  8.00000000E-01  8.00000000E-01  1.50000000E+00  8.00000000E-01
  8.00000000E-01  1.50000000E+00  8.00000000E-01  8.00000000E-01  1.50000000E+00
  8.00000000E-01  8.00000000E-01  1.50000000E+00  8.00000000E-01  8.00000000E-01
  1.50000000E+00  8.00000000E-01  8.00000000E-01  1.50000000E+00  8.00000000E-01
  8.00000000E-01  1.50000000E+00  8.00000000E-01  8.00000000E-01  1.50000000E+00
  8.00000000E-01  8.00000000E-01  1.50000000E+00  8.00000000E-01  8.00000000E-01
  1.50000000E+00  8.00000000E-01  8.00000000E-01  1.50000000E+00  8.00000000E-01
  8.00000000E-01  1.50000000E+00  8.00000000E-01  8.00000000E-01  1.50000000E+00
  8.00000000E-01  8.00000000E-01  1.50000000E+00  8.00000000E-01  8.00000000E-01
  1.50000000E+00  8.00000000E-01  8.00000000E-01  1.50000000E+00  8.00000000E-01
  8.00000000E-01  1.50000000E+00  8.00000000E-01  8.00000000E-01  1.50000000E+00
  8.00000000E-01  8.00000000E-01  1.50000000E+00  8.00000000E-01  8.00000000E-01
  1.50000000E+00  8.00000000E-01  8.00000000E-01  1.50000000E+00  8.00000000E-01
  8.00000000E-01  1.50000000E+00  8.00000000E-01  8.00000000E-01  1.50000000E+00
  8.00000000E-01  8.00000000E-01  1.50000000E+00  8.00000000E-01  8.00000000E-01
  1.50000000E+00  8.00000000E-01  8.00000000E-01  1.50000000E+00  8.00000000E-01
  8.00000000E-01  1.50000000E+00  8.00000000E-01  8.00000000E-01  1.50000000E+00
  8.00000000E-01  8.00000000E-01  1.50000000E+00  8.00000000E-01  8.00000000E-01
  1.50000000E+00  8.00000000E-01  8.00000000E-01  1.50000000E+00  8.00000000E-01
  8.00000000E-01  1.50000000E+00  8.00000000E-01  8.00000000E-01  1.50000000E+00
  8.00000000E-01  8.00000000E-01  1.50000000E+00  8.00000000E-01  8.00000000E-01
  1.50000000E+00  8.00000000E-01  8.00000000E-01  1.50000000E+00  8.00000000E-01
  8.00000000E-01  1.50000000E+00  8.00000000E-01  8.00000000E-01  1.50000000E+00
  8.00000000E-01  8.00000000E-01  1.50000000E+00  8.00000000E-01  8.00000000E-01
  1.50000000E+00  8.00000000E-01  8.00000000E-01  1.50000000E+00  8.00000000E-01
  8.00000000E-01  1.50000000E+00  8.00000000E-01  8.00000000E-01  1.50000000E+00
  8.00000000E-01  8.00000000E-01  1.50000000E+00  8.00000000E-01  8.00000000E-01
  1.50000000E+00  8.00000000E-01  8.00000000E-01  1.50000000E+00  8.00000000E-01
  8.00000000E-01  1.50000000E+00  8.00000000E-01  8.00000000E-01  1.50000000E+00
  8.00000000E-01  8.00000000E-01  1.50000000E+00  8.00000000E-01  8.00000000E-01
  1.50000000E+00  8.00000000E-01  8.00000000E-01  1.50000000E+00  8.00000000E-01
  8.00000000E-01  1.50000000E+00  8.00000000E-01  8.00000000E-01  1.50000000E+00
  8.00000000E-01  8.00000000E-01  1.50000000E+00  8.00000000E-01  8.00000000E-01
  1.50000000E+00  8.00000000E-01  8.00000000E-01  1.50000000E+00  8.00000000E-01
  8.00000000E-01  1.50000000E+00  8.00000000E-01  8.00000000E-01  1.50000000E+00
  8.00000000E-01  8.00000000E-01  1.50000000E+00  8.00000000E-01  8.00000000E-01
  1.50000000E+00  8.00000000E-01  8.00000000E-01  1.50000000E+00  8.00000000E-01
  8.00000000E-01  1.50000000E+00  8.00000000E-01  8.00000000E-01  1.50000000E+00
  8.00000000E-01  8.00000000E-01  1.50000000E+00  8.00000000E-01  8.00000000E-01
  1.50000000E+00  8.00000000E-01  8.00000000E-01  1.50000000E+00  8.00000000E-01
  8.00000000E-01  1.50000000E+00  8.00000000E-01  8.00000000E-01  1.50000000E+00
  8.00000000E-01  8.00000000E-01  1.50000000E+00  8.00000000E-01  8.00000000E-01
  1.50000000E+00  8.00000000E-01  8.00000000E-01  1.50000000E+00  8.00000000E-01
  8.00000000E-01  1.50000000E+00  8.00000000E-01  8.00000000E-01  1.50000000E+00
  8.00000000E-01  8.00000000E-01  1.50000000E+00  8.00000000E-01  8.00000000E-01
  1.50000000E+00  8.00000000E-01  8.00000000E-01  1.50000000E+00  8.00000000E-01
  8.00000000E-01  1.50000000E+00  8.00000000E-01  8.00000000E-01  1.50000000E+00
  8.00000000E-01  8.00000000E-01  1.50000000E+00  8.00000000E-01  8.00000000E-01
  1.50000000E+00  8.00000000E-01  8.00000000E-01  1.50000000E+00  8.00000000E-01
  8.00000000E-01  1.50000000E+00  8.00000000E-01  8.00000000E-01  1.50000000E+00
  8.00000000E-01  8.00000000E-01  1.50000000E+00  8.00000000E-01  8.00000000E-01
  1.50000000E+00  8.00000000E-01  8.00000000E-01  1.50000000E+00  8.00000000E-01
  8.00000000E-01  1.50000000E+00  8.00000000E-01  8.00000000E-01  1.50000000E+00
  8.00000000E-01  8.00000000E-01  1.50000000E+00  8.00000000E-01  8.00000000E-01
  1.50000000E+00  8.00000000E-01  8.00000000E-01  1.50000000E+00  8.00000000E-01
  8.00000000E-01  1.50000000E+00  8.00000000E-01  8.00000000E-01  1.50000000E+00
  8.00000000E-01  8.00000000E-01  1.50000000E+00  8.00000000E-01  8.00000000E-01
  1.50000000E+00  8.00000000E-01  8.00000000E-01  1.50000000E+00  8.00000000E-01
  8.00000000E-01  1.50000000E+00  8.00000000E-01  8.00000000E-01  1.50000000E+00
  8.00000000E-01  8.00000000E-01  1.50000000E+00  8.00000000E-01  8.00000000E-01
  1.50000000E+00  8.00000000E-01  8.00000000E-01  1.50000000E+00  8.00000000E-01
  8.00000000E-01  1.50000000E+00  8.00000000E-01  8.00000000E-01  1.50000000E+00
  8.00000000E-01  8.00000000E-01  1.50000000E+00  8.00000000E-01  8.00000000E-01
  1.50000000E+00  8.00000000E-01  8.00000000E-01  1.50000000E+00  8.00000000E-01
  8.00000000E-01  1.50000000E+00  8.00000000E-01  8.00000000E-01  1.50000000E+00
  8.00000000E-01  8.00000000E-01  1.50000000E+00  8.00000000E-01  8.00000000E-01
  1.50000000E+00  8.00000000E-01  8.00000000E-01  1.50000000E+00  8.00000000E-01
  8.00000000E-01  1.50000000E+00  8.00000000E-01  8.00000000E-01  1.50000000E+00
  8.00000000E-01  8.00000000E-01  1.50000000E+00  8.00000000E-01  8.00000000E-01
  1.50000000E+00  8.00000000E-01  8.00000000E-01  1.50000000E+00  8.00000000E-01
  8.00000000E-01  1.50000000E+00  8.00000000E-01  8.00000000E-01  1.50000000E+00
  8.00000000E-01  8.00000000E-01  1.50000000E+00  8.00000000E-01  8.00000000E-01
  1.50000000E+00  8.00000000E-01  8.00000000E-01  1.50000000E+00  8.00000000E-01
  8.00000000E-01  1.50000000E+00  8.00000000E-01  8.00000000E-01  1.50000000E+00
  8.00000000E-01  8.00000000E-01  1.50000000E+00  8.00000000E-01  8.00000000E-01
  1.50000000E+00  8.00000000E-01  8.00000000E-01  1.50000000E+00  8.00000000E-01
  8.00000000E-01  1.50000000E+00  8.00000000E-01  8.00000000E-01  1.50000000E+00
  8.00000000E-01  8.00000000E-01  1.50000000E+00  8.00000000E-01  8.00000000E-01
  1.50000000E+00  8.00000000E-01  8.00000000E-01  1.50000000E+00  8.00000000E-01
  8.00000000E-01  1.50000000E+00  8.00000000E-01  8.00000000E-01  1.50000000E+00
  8.00000000E-01  8.00000000E-01  1.50000000E+00  8.00000000E-01  8.00000000E-01
  1.50000000E+00  8.00000000E-01  8.00000000E-01  1.50000000E+00  8.00000000E-01
  8.00000000E-01  1.50000000E+00  8.00000000E-01  8.00000000E-01  1.50000000E+00
  8.00000000E-01  8.00000000E-01  1.50000000E+00  8.00000000E-01  8.00000000E-01
  1.50000000E+00  8.00000000E-01  8.00000000E-01  1.50000000E+00  8.00000000E-01
  8.00000000E-01  1.50000000E+00  8.00000000E-01  8.00000000E-01  1.50000000E+00
  8.00000000E-01  8.00000000E-01  1.50000000E+00  8.00000000E-01  8.00000000E-01
  1.50000000E+00  8.00000000E-01  8.00000000E-01  1.50000000E+00  8.00000000E-01
  8.00000000E-01  1.50000000E+00  8.00000000E-01  8.00000000E-01  1.50000000E+00
  8.00000000E-01  8.00000000E-01  1.50000000E+00  8.00000000E-01  8.00000000E-01
  1.50000000E+00  8.00000000E-01  8.00000000E-01  1.50000000E+00  8.00000000E-01
  8.00000000E-01  1.50000000E+00  8.00000000E-01  8.00000000E-01  1.50000000E+00
  8.00000000E-01  8.00000000E-01  1.50000000E+00  8.00000000E-01  8.00000000E-01
  1.50000000E+00  8.00000000E-01  8.00000000E-01  1.50000000E+00  8.00000000E-01
  8.00000000E-01  1.50000000E+00  8.00000000E-01  8.00000000E-01  1.50000000E+00
  8.00000000E-01  8.00000000E-01  1.50000000E+00  8.00000000E-01  8.00000000E-01
  1.50000000E+00  8.00000000E-01  8.00000000E-01  1.50000000E+00  8.00000000E-01
  8.00000000E-01  1.50000000E+00  8.00000000E-01  8.00000000E-01  1.50000000E+00
  8.00000000E-01  8.00000000E-01  1.50000000E+00  8.00000000E-01  8.00000000E-01
  1.50000000E+00  8.00000000E-01  8.00000000E-01  1.50000000E+00  8.00000000E-01
  8.00000000E-01  1.50000000E+00  8.00000000E-01  8.00000000E-01  1.50000000E+00
  8.00000000E-01  8.00000000E-01  1.50000000E+00  8.00000000E-01  8.00000000E-01
  1.50000000E+00  8.00000000E-01  8.00000000E-01  1.50000000E+00  8.00000000E-01
  8.00000000E-01  1.50000000E+00  8.00000000E-01  8.00000000E-01  1.50000000E+00
  8.00000000E-01  8.00000000E-01  1.50000000E+00  8.00000000E-01  8.00000000E-01
  1.50000000E+00  8.00000000E-01  8.00000000E-01  1.50000000E+00  8.00000000E-01
  8.00000000E-01  1.50000000E+00  8.00000000E-01  8.00000000E-01  1.50000000E+00
  8.00000000E-01  8.00000000E-01  1.50000000E+00  8.00000000E-01  8.00000000E-01
  1.50000000E+00  8.00000000E-01  8.00000000E-01  1.50000000E+00  8.00000000E-01
  8.00000000E-01  1.50000000E+00  8.00000000E-01  8.00000000E-01  1.50000000E+00
  8.00000000E-01  8.00000000E-01  1.50000000E+00  8.00000000E-01  8.00000000E-01
  1.50000000E+00  8.00000000E-01  8.00000000E-01  1.50000000E+00  8.00000000E-01
  8.00000000E-01  1.50000000E+00  8.00000000E-01  8.00000000E-01  1.50000000E+00
  8.00000000E-01  8.00000000E-01  1.50000000E+00  8.00000000E-01  8.00000000E-01
  1.50000000E+00  8.00000000E-01  8.00000000E-01  1.50000000E+00  8.00000000E-01
  8.00000000E-01  1.50000000E+00  8.00000000E-01  8.00000000E-01  1.50000000E+00
  8.00000000E-01  8.00000000E-01  1.50000000E+00  8.00000000E-01  8.00000000E-01
  1.50000000E+00  8.00000000E-01  8.00000000E-01  1.50000000E+00  8.00000000E-01
  8.00000000E-01  1.50000000E+00  8.00000000E-01  8.00000000E-01  1.50000000E+00
  8.00000000E-01  8.00000000E-01  1.50000000E+00  8.00000000E-01  8.00000000E-01
  1.50000000E+00  8.00000000E-01  8.00000000E-01  1.50000000E+00  8.00000000E-01
  8.00000000E-01  1.50000000E+00  8.00000000E-01  8.00000000E-01  1.50000000E+00
  8.00000000E-01  8.00000000E-01  1.50000000E+00  8.00000000E-01  8.00000000E-01
  1.50000000E+00  8.00000000E-01  8.00000000E-01  1.50000000E+00  8.00000000E-01
  8.00000000E-01  1.50000000E+00  8.00000000E-01  8.00000000E-01  1.50000000E+00
  8.00000000E-01  8.00000000E-01  1.50000000E+00  8.00000000E-01  8.00000000E-01
  1.50000000E+00  8.00000000E-01  8.00000000E-01  1.50000000E+00  8.00000000E-01
  8.00000000E-01  1.50000000E+00  8.00000000E-01  8.00000000E-01  1.50000000E+00
  8.00000000E-01  8.00000000E-01  1.50000000E+00  8.00000000E-01  8.00000000E-01
  1.50000000E+00  8.00000000E-01  8.00000000E-01  1.50000000E+00  8.00000000E-01
  8.00000000E-01  1.50000000E+00  8.00000000E-01  8.00000000E-01  1.50000000E+00
  8.00000000E-01  8.00000000E-01  1.50000000E+00  8.00000000E-01  8.00000000E-01
  1.50000000E+00  8.00000000E-01  8.00000000E-01  1.50000000E+00  8.00000000E-01
  8.00000000E-01  1.50000000E+00  8.00000000E-01  8.00000000E-01  1.50000000E+00
  8.00000000E-01  8.00000000E-01  1.50000000E+00  8.00000000E-01  8.00000000E-01
  1.50000000E+00  8.00000000E-01  8.00000000E-01  1.50000000E+00  8.00000000E-01
  8.00000000E-01  1.50000000E+00  8.00000000E-01  8.00000000E-01  1.50000000E+00
  8.00000000E-01  8.00000000E-01  1.50000000E+00  8.00000000E-01  8.00000000E-01
  1.50000000E+00  8.00000000E-01  8.00000000E-01  1.50000000E+00  8.00000000E-01
  8.00000000E-01  1.50000000E+00  8.00000000E-01  8.00000000E-01  1.50000000E+00
  8.00000000E-01  8.00000000E-01  1.50000000E+00  8.00000000E-01  8.00000000E-01
  1.50000000E+00  8.00000000E-01  8.00000000E-01  1.50000000E+00  8.00000000E-01
  8.00000000E-01  1.50000000E+00  8.00000000E-01  8.00000000E-01  1.50000000E+00
  8.00000000E-01  8.00000000E-01  1.50000000E+00  8.00000000E-01  8.00000000E-01
  1.50000000E+00  8.00000000E-01  8.00000000E-01  1.50000000E+00  8.00000000E-01
  8.00000000E-01  1.50000000E+00  8.00000000E-01  8.00000000E-01  1.50000000E+00
  8.00000000E-01  8.00000000E-01  1.50000000E+00  8.00000000E-01  8.00000000E-01
  1.50000000E+00  8.00000000E-01  8.00000000E-01  1.50000000E+00  8.00000000E-01
  8.00000000E-01  1.50000000E+00  8.00000000E-01  8.00000000E-01  1.50000000E+00
  8.00000000E-01  8.00000000E-01  1.50000000E+00  8.00000000E-01  8.00000000E-01
  1.50000000E+00  8.00000000E-01  8.00000000E-01  1.50000000E+00  8.00000000E-01
  8.00000000E-01  1.50000000E+00  8.00000000E-01  8.00000000E-01  1.50000000E+00
  8.00000000E-01  8.00000000E-01  1.50000000E+00  8.00000000E-01  8.00000000E-01
  1.50000000E+00  8.00000000E-01  8.00000000E-01  1.50000000E+00  8.00000000E-01
  8.00000000E-01  1.50000000E+00  8.00000000E-01  8.00000000E-01  1.50000000E+00
  8.00000000E-01  8.00000000E-01  1.50000000E+00  8.00000000E-01  8.00000000E-01
  1.50000000E+00  8.00000000E-01  8.00000000E-01  1.50000000E+00  8.00000000E-01
  8.00000000E-01  1.50000000E+00  8.00000000E-01  8.00000000E-01  1.50000000E+00
  8.00000000E-01  8.00000000E-01  1.50000000E+00  8.00000000E-01  8.00000000E-01
  1.50000000E+00  8.00000000E-01  8.00000000E-01  1.50000000E+00  8.00000000E-01
  8.00000000E-01  1.50000000E+00  8.00000000E-01  8.00000000E-01  1.50000000E+00
  8.00000000E-01  8.00000000E-01  1.50000000E+00  8.00000000E-01  8.00000000E-01
  1.50000000E+00  8.00000000E-01  8.00000000E-01  1.50000000E+00  8.00000000E-01
  8.00000000E-01  1.50000000E+00  8.00000000E-01  8.00000000E-01  1.50000000E+00
  8.00000000E-01  8.00000000E-01  1.50000000E+00  8.00000000E-01  8.00000000E-01
  1.50000000E+00  8.00000000E-01  8.00000000E-01  1.50000000E+00  8.00000000E-01
  8.00000000E-01  1.50000000E+00  8.00000000E-01  8.00000000E-01  1.50000000E+00
  8.00000000E-01  8.00000000E-01  1.50000000E+00  8.00000000E-01  8.00000000E-01
  1.50000000E+00  8.00000000E-01  8.00000000E-01  1.50000000E+00  8.00000000E-01
  8.00000000E-01  1.50000000E+00  8.00000000E-01  8.00000000E-01  1.50000000E+00
  8.00000000E-01  8.00000000E-01  1.50000000E+00  8.00000000E-01  8.00000000E-01
  1.50000000E+00  8.00000000E-01  8.00000000E-01  1.50000000E+00  8.00000000E-01
  8.00000000E-01  1.50000000E+00  8.00000000E-01  8.00000000E-01  1.50000000E+00
  8.00000000E-01  8.00000000E-01  1.50000000E+00  8.00000000E-01  8.00000000E-01
  1.50000000E+00  8.00000000E-01  8.00000000E-01  1.50000000E+00  8.00000000E-01
  8.00000000E-01  1.50000000E+00  8.00000000E-01  8.00000000E-01  1.50000000E+00
  8.00000000E-01  8.00000000E-01  1.50000000E+00  8.00000000E-01  8.00000000E-01
  1.50000000E+00  8.00000000E-01  8.00000000E-01  1.50000000E+00  8.00000000E-01
  8.00000000E-01  1.50000000E+00  8.00000000E-01  8.00000000E-01  1.50000000E+00
  8.00000000E-01  8.00000000E-01  1.50000000E+00  8.00000000E-01  8.00000000E-01
  1.50000000E+00  8.00000000E-01  8.00000000E-01  1.50000000E+00  8.00000000E-01
  8.00000000E-01  1.50000000E+00  8.00000000E-01  8.00000000E-01  1.50000000E+00
  8.00000000E-01  8.00000000E-01  1.50000000E+00  8.00000000E-01  8.00000000E-01
  1.50000000E+00  8.00000000E-01  8.00000000E-01  1.50000000E+00  8.00000000E-01
  8.00000000E-01  1.50000000E+00  8.00000000E-01  8.00000000E-01  1.50000000E+00
  8.00000000E-01  8.00000000E-01  1.50000000E+00  8.00000000E-01  8.00000000E-01
  1.50000000E+00  8.00000000E-01  8.00000000E-01  1.50000000E+00  8.00000000E-01
  8.00000000E-01  1.50000000E+00  8.00000000E-01  8.00000000E-01  1.50000000E+00
  8.00000000E-01  8.00000000E-01  1.50000000E+00  8.00000000E-01  8.00000000E-01
  1.50000000E+00  8.00000000E-01  8.00000000E-01  1.50000000E+00  8.00000000E-01
  8.00000000E-01  1.50000000E+00  8.00000000E-01  8.00000000E-01  1.50000000E+00
  8.00000000E-01  8.00000000E-01  1.50000000E+00  8.00000000E-01  8.00000000E-01
  1.50000000E+00  8.00000000E-01  8.00000000E-01  1.50000000E+00  8.00000000E-01
  8.00000000E-01  1.50000000E+00  8.00000000E-01  8.00000000E-01  1.50000000E+00
  8.00000000E-01  8.00000000E-01  1.50000000E+00  8.00000000E-01  8.00000000E-01
  1.50000000E+00  8.00000000E-01  8.00000000E-01  1.50000000E+00  8.00000000E-01
  8.00000000E-01  1.50000000E+00  8.00000000E-01  8.00000000E-01  1.50000000E+00
  8.00000000E-01  8.00000000E-01  1.50000000E+00  8.00000000E-01  8.00000000E-01
  1.50000000E+00  8.00000000E-01  8.00000000E-01  1.50000000E+00  8.00000000E-01
  8.00000000E-01  1.50000000E+00  8.00000000E-01  8.00000000E-01  1.50000000E+00
  8.00000000E-01  8.00000000E-01  1.50000000E+00  8.00000000E-01  8.00000000E-01
  1.50000000E+00  8.00000000E-01  8.00000000E-01  1.50000000E+00  8.00000000E-01
  8.00000000E-01  1.50000000E+00  8.00000000E-01  8.00000000E-01  1.50000000E+00
  8.00000000E-01  8.00000000E-01  1.50000000E+00  8.00000000E-01  8.00000000E-01
  1.50000000E+00  8.00000000E-01  8.00000000E-01  1.50000000E+00  8.00000000E-01
  8.00000000E-01  1.50000000E+00  8.00000000E-01  8.00000000E-01  1.50000000E+00
  8.00000000E-01  8.00000000E-01  1.50000000E+00  8.00000000E-01  8.00000000E-01
  1.50000000E+00  8.00000000E-01  8.00000000E-01  1.50000000E+00  8.00000000E-01
  8.00000000E-01  1.50000000E+00  8.00000000E-01  8.00000000E-01  1.50000000E+00
  8.00000000E-01  8.00000000E-01  1.50000000E+00  8.00000000E-01  8.00000000E-01
  1.50000000E+00  8.00000000E-01  8.00000000E-01  1.50000000E+00  8.00000000E-01
  8.00000000E-01  1.50000000E+00  8.00000000E-01  8.00000000E-01  1.50000000E+00
  8.00000000E-01  8.00000000E-01  1.50000000E+00  8.00000000E-01  8.00000000E-01
  1.50000000E+00  8.00000000E-01  8.00000000E-01  1.50000000E+00  8.00000000E-01
  8.00000000E-01  1.50000000E+00  8.00000000E-01  8.00000000E-01  1.50000000E+00
  8.00000000E-01  8.00000000E-01  1.50000000E+00  8.00000000E-01  8.00000000E-01
  1.50000000E+00  8.00000000E-01  8.00000000E-01  1.50000000E+00  8.00000000E-01
  8.00000000E-01  1.50000000E+00  8.00000000E-01  8.00000000E-01  1.50000000E+00
  8.00000000E-01  8.00000000E-01  1.50000000E+00  8.00000000E-01  8.00000000E-01
  1.50000000E+00  8.00000000E-01  8.00000000E-01  1.50000000E+00  8.00000000E-01
  8.00000000E-01  1.50000000E+00  8.00000000E-01  8.00000000E-01  1.50000000E+00
  8.00000000E-01  8.00000000E-01  1.50000000E+00  8.00000000E-01  8.00000000E-01
  1.50000000E+00  8.00000000E-01  8.00000000E-01  1.50000000E+00  8.00000000E-01
  8.00000000E-01  1.50000000E+00  8.00000000E-01  8.00000000E-01  1.50000000E+00
  8.00000000E-01  8.00000000E-01  1.50000000E+00  8.00000000E-01  8.00000000E-01
  1.50000000E+00  8.00000000E-01  8.00000000E-01  1.50000000E+00  8.00000000E-01
  8.00000000E-01  1.50000000E+00  8.00000000E-01  8.00000000E-01  1.50000000E+00
  8.00000000E-01  8.00000000E-01  1.50000000E+00  8.00000000E-01  8.00000000E-01
  1.50000000E+00  8.00000000E-01  8.00000000E-01  1.50000000E+00  8.00000000E-01
  8.00000000E-01  1.50000000E+00  8.00000000E-01  8.00000000E-01  1.50000000E+00
  8.00000000E-01  8.00000000E-01  1.50000000E+00  8.00000000E-01  8.00000000E-01
  1.50000000E+00  8.00000000E-01  8.00000000E-01  1.50000000E+00  8.00000000E-01
  8.00000000E-01  1.50000000E+00  8.00000000E-01  8.00000000E-01  1.50000000E+00
  8.00000000E-01  8.00000000E-01  1.50000000E+00  8.00000000E-01  8.00000000E-01
  1.50000000E+00  8.00000000E-01  8.00000000E-01  1.50000000E+00  8.00000000E-01
  8.00000000E-01  1.50000000E+00  8.00000000E-01  8.00000000E-01  1.50000000E+00
  8.00000000E-01  8.00000000E-01  1.50000000E+00  8.00000000E-01  8.00000000E-01
  1.50000000E+00  8.00000000E-01  8.00000000E-01  1.50000000E+00  8.00000000E-01
  8.00000000E-01  1.50000000E+00  8.00000000E-01  8.00000000E-01  1.50000000E+00
  8.00000000E-01  8.00000000E-01  1.50000000E+00  8.00000000E-01  8.00000000E-01
  1.50000000E+00  8.00000000E-01  8.00000000E-01  1.50000000E+00  8.00000000E-01
  8.00000000E-01  1.50000000E+00  8.00000000E-01  8.00000000E-01  1.50000000E+00
  8.00000000E-01  8.00000000E-01  1.50000000E+00  8.00000000E-01  8.00000000E-01
  1.50000000E+00  8.00000000E-01  8.00000000E-01  1.50000000E+00  8.00000000E-01
  8.00000000E-01  1.50000000E+00  8.00000000E-01  8.00000000E-01  1.50000000E+00
  8.00000000E-01  8.00000000E-01  1.50000000E+00  8.00000000E-01  8.00000000E-01
  1.50000000E+00  8.00000000E-01  8.00000000E-01  1.50000000E+00  8.00000000E-01
  8.00000000E-01  1.50000000E+00  8.00000000E-01  8.00000000E-01  1.50000000E+00
  8.00000000E-01  8.00000000E-01  1.50000000E+00  8.00000000E-01  8.00000000E-01
  1.50000000E+00  8.00000000E-01  8.00000000E-01  1.50000000E+00  8.00000000E-01
  8.00000000E-01  1.50000000E+00  8.00000000E-01  8.00000000E-01  1.50000000E+00
  8.00000000E-01  8.00000000E-01  1.50000000E+00  8.00000000E-01  8.00000000E-01
  1.50000000E+00  8.00000000E-01  8.00000000E-01  1.50000000E+00  8.00000000E-01
  8.00000000E-01  1.50000000E+00  8.00000000E-01  8.00000000E-01  1.50000000E+00
  8.00000000E-01  8.00000000E-01  1.50000000E+00  8.00000000E-01  8.00000000E-01
  1.50000000E+00  8.00000000E-01  8.00000000E-01  1.50000000E+00  8.00000000E-01
  8.00000000E-01  1.50000000E+00  8.00000000E-01  8.00000000E-01  1.50000000E+00
  8.00000000E-01  8.00000000E-01  1.50000000E+00  8.00000000E-01  8.00000000E-01
  1.50000000E+00  8.00000000E-01  8.00000000E-01  1.50000000E+00  8.00000000E-01
  8.00000000E-01  1.50000000E+00  8.00000000E-01  8.00000000E-01  1.50000000E+00
  8.00000000E-01  8.00000000E-01  1.50000000E+00  8.00000000E-01  8.00000000E-01
  1.50000000E+00  8.00000000E-01  8.00000000E-01  1.50000000E+00  8.00000000E-01
  8.00000000E-01  1.50000000E+00  8.00000000E-01  8.00000000E-01  1.50000000E+00
  8.00000000E-01  8.00000000E-01  1.50000000E+00  8.00000000E-01  8.00000000E-01
  1.50000000E+00  8.00000000E-01  8.00000000E-01  1.50000000E+00  8.00000000E-01
  8.00000000E-01  1.50000000E+00  8.00000000E-01  8.00000000E-01  1.50000000E+00
  8.00000000E-01  8.00000000E-01  1.50000000E+00  8.00000000E-01  8.00000000E-01
  1.50000000E+00  8.00000000E-01  8.00000000E-01  1.50000000E+00  8.00000000E-01
  8.00000000E-01  1.50000000E+00  8.00000000E-01  8.00000000E-01  1.50000000E+00
  8.00000000E-01  8.00000000E-01  1.50000000E+00  8.00000000E-01  8.00000000E-01
  1.50000000E+00  8.00000000E-01  8.00000000E-01  1.50000000E+00  8.00000000E-01
  8.00000000E-01  1.50000000E+00  8.00000000E-01  8.00000000E-01  1.50000000E+00
  8.00000000E-01  8.00000000E-01  1.50000000E+00  8.00000000E-01  8.00000000E-01
  1.50000000E+00  8.00000000E-01  8.00000000E-01  1.50000000E+00  8.00000000E-01
  8.00000000E-01  1.50000000E+00  8.00000000E-01  8.00000000E-01  1.50000000E+00
  8.00000000E-01  8.00000000E-01  1.50000000E+00  8.00000000E-01  8.00000000E-01
  1.50000000E+00  8.00000000E-01  8.00000000E-01  1.50000000E+00  8.00000000E-01
  8.00000000E-01  1.50000000E+00  8.00000000E-01  8.00000000E-01  1.50000000E+00
  8.00000000E-01  8.00000000E-01  1.50000000E+00  8.00000000E-01  8.00000000E-01
  1.50000000E+00  8.00000000E-01  8.00000000E-01  1.50000000E+00  8.00000000E-01
  8.00000000E-01  1.50000000E+00  8.00000000E-01  8.00000000E-01  1.50000000E+00
  8.00000000E-01  8.00000000E-01  1.50000000E+00  8.00000000E-01  8.00000000E-01
  1.50000000E+00  8.00000000E-01  8.00000000E-01  1.50000000E+00  8.00000000E-01
  8.00000000E-01  1.50000000E+00  8.00000000E-01  8.00000000E-01  1.50000000E+00
  8.00000000E-01  8.00000000E-01  1.50000000E+00  8.00000000E-01  8.00000000E-01
  1.50000000E+00  8.00000000E-01  8.00000000E-01  1.50000000E+00  8.00000000E-01
  8.00000000E-01  1.50000000E+00  8.00000000E-01  8.00000000E-01  1.50000000E+00
  8.00000000E-01  8.00000000E-01  1.50000000E+00  8.00000000E-01  8.00000000E-01
  1.50000000E+00  8.00000000E-01  8.00000000E-01  1.50000000E+00  8.00000000E-01
  8.00000000E-01  1.50000000E+00  8.00000000E-01  8.00000000E-01  1.50000000E+00
  8.00000000E-01  8.00000000E-01  1.50000000E+00  8.00000000E-01  8.00000000E-01
  1.50000000E+00  8.00000000E-01  8.00000000E-01  1.50000000E+00  8.00000000E-01
  8.00000000E-01  1.50000000E+00  8.00000000E-01  8.00000000E-01  1.50000000E+00
  8.00000000E-01  8.00000000E-01  1.50000000E+00  8.00000000E-01  8.00000000E-01
  1.50000000E+00  8.00000000E-01  8.00000000E-01  1.50000000E+00  8.00000000E-01
  8.00000000E-01  1.50000000E+00  8.00000000E-01  8.00000000E-01  1.50000000E+00
  8.00000000E-01  8.00000000E-01  1.50000000E+00  8.00000000E-01  8.00000000E-01
  1.50000000E+00  8.00000000E-01  8.00000000E-01  1.50000000E+00  8.00000000E-01
  8.00000000E-01  1.50000000E+00  8.00000000E-01  8.00000000E-01  1.50000000E+00
  8.00000000E-01  8.00000000E-01  1.50000000E+00  8.00000000E-01  8.00000000E-01
  1.50000000E+00  8.00000000E-01  8.00000000E-01  1.50000000E+00  8.00000000E-01
  8.00000000E-01  1.50000000E+00  8.00000000E-01  8.00000000E-01  1.50000000E+00
  8.00000000E-01  8.00000000E-01  1.50000000E+00  8.00000000E-01  8.00000000E-01
  1.50000000E+00  8.00000000E-01  8.00000000E-01  1.50000000E+00  8.00000000E-01
  8.00000000E-01  1.50000000E+00  8.00000000E-01  8.00000000E-01  1.50000000E+00
  8.00000000E-01  8.00000000E-01  1.50000000E+00  8.00000000E-01  8.00000000E-01
  1.50000000E+00  8.00000000E-01  8.00000000E-01  1.50000000E+00  8.00000000E-01
  8.00000000E-01  1.50000000E+00  8.00000000E-01  8.00000000E-01  1.50000000E+00
  8.00000000E-01  8.00000000E-01  1.50000000E+00  8.00000000E-01  8.00000000E-01
  1.50000000E+00  8.00000000E-01  8.00000000E-01  1.50000000E+00  8.00000000E-01
  8.00000000E-01  1.50000000E+00  8.00000000E-01  8.00000000E-01  1.50000000E+00
  8.00000000E-01  8.00000000E-01  1.50000000E+00  8.00000000E-01  8.00000000E-01
  1.50000000E+00  8.00000000E-01  8.00000000E-01  1.50000000E+00  8.00000000E-01
  8.00000000E-01  1.50000000E+00  8.00000000E-01  8.00000000E-01  1.50000000E+00
  8.00000000E-01  8.00000000E-01  1.50000000E+00  8.00000000E-01  8.00000000E-01
  1.50000000E+00  8.00000000E-01  8.00000000E-01  1.50000000E+00  8.00000000E-01
  8.00000000E-01  1.50000000E+00  8.00000000E-01  8.00000000E-01  1.50000000E+00
  8.00000000E-01  8.00000000E-01  1.50000000E+00  8.00000000E-01  8.00000000E-01
  1.50000000E+00  8.00000000E-01  8.00000000E-01  1.50000000E+00  8.00000000E-01
  8.00000000E-01  1.50000000E+00  8.00000000E-01  8.00000000E-01  1.50000000E+00
  8.00000000E-01  8.00000000E-01  1.50000000E+00  8.00000000E-01  8.00000000E-01
  1.50000000E+00  8.00000000E-01  8.00000000E-01  1.50000000E+00  8.00000000E-01
  8.00000000E-01  1.50000000E+00  8.00000000E-01  8.00000000E-01  1.50000000E+00
  8.00000000E-01  8.00000000E-01  1.50000000E+00  8.00000000E-01  8.00000000E-01
  1.50000000E+00  8.00000000E-01  8.00000000E-01  1.50000000E+00  8.00000000E-01
  8.00000000E-01  1.50000000E+00  8.00000000E-01  8.00000000E-01  1.50000000E+00
  8.00000000E-01  8.00000000E-01  1.50000000E+00  8.00000000E-01  8.00000000E-01
  1.50000000E+00  8.00000000E-01  8.00000000E-01  1.50000000E+00  8.00000000E-01
  8.00000000E-01  1.50000000E+00  8.00000000E-01  8.00000000E-01  1.50000000E+00
  8.00000000E-01  8.00000000E-01  1.50000000E+00  8.00000000E-01  8.00000000E-01
  1.50000000E+00  8.00000000E-01  8.00000000E-01  1.50000000E+00  8.00000000E-01
  8.00000000E-01  1.50000000E+00  8.00000000E-01  8.00000000E-01  1.50000000E+00
  8.00000000E-01  8.00000000E-01  1.50000000E+00  8.00000000E-01  8.00000000E-01
  1.50000000E+00  8.00000000E-01  8.00000000E-01  1.50000000E+00  8.00000000E-01
  8.00000000E-01  1.50000000E+00  8.00000000E-01  8.00000000E-01  1.50000000E+00
  8.00000000E-01  8.00000000E-01  1.50000000E+00  8.00000000E-01  8.00000000E-01
  1.50000000E+00  8.00000000E-01  8.00000000E-01  1.50000000E+00  8.00000000E-01
  8.00000000E-01  1.50000000E+00  8.00000000E-01  8.00000000E-01  1.50000000E+00
  8.00000000E-01  8.00000000E-01  1.50000000E+00  8.00000000E-01  8.00000000E-01
  1.50000000E+00  8.00000000E-01  8.00000000E-01  1.50000000E+00  8.00000000E-01
  8.00000000E-01  1.50000000E+00  8.00000000E-01  8.00000000E-01  1.50000000E+00
  8.00000000E-01  8.00000000E-01  1.50000000E+00  8.00000000E-01  8.00000000E-01
  1.50000000E+00  8.00000000E-01  8.00000000E-01  1.50000000E+00  8.00000000E-01
  8.00000000E-01  1.50000000E+00  8.00000000E-01  8.00000000E-01  1.50000000E+00
  8.00000000E-01  8.00000000E-01  1.50000000E+00  8.00000000E-01  8.00000000E-01
  1.50000000E+00  8.00000000E-01  8.00000000E-01  1.50000000E+00  8.00000000E-01
  8.00000000E-01  1.50000000E+00  8.00000000E-01  8.00000000E-01  1.50000000E+00
  8.00000000E-01  8.00000000E-01  1.50000000E+00  8.00000000E-01  8.00000000E-01
  1.50000000E+00  8.00000000E-01  8.00000000E-01  1.50000000E+00  8.00000000E-01
  8.00000000E-01  1.50000000E+00  8.00000000E-01  8.00000000E-01  1.50000000E+00
  8.00000000E-01  8.00000000E-01  1.50000000E+00  8.00000000E-01  8.00000000E-01
  1.50000000E+00  8.00000000E-01  8.00000000E-01  1.50000000E+00  8.00000000E-01
  8.00000000E-01  1.50000000E+00  8.00000000E-01  8.00000000E-01  1.50000000E+00
  8.00000000E-01  8.00000000E-01  1.50000000E+00  8.00000000E-01  8.00000000E-01
  1.50000000E+00  8.00000000E-01  8.00000000E-01  1.50000000E+00  8.00000000E-01
  8.00000000E-01  1.50000000E+00  8.00000000E-01  8.00000000E-01  1.50000000E+00
  8.00000000E-01  8.00000000E-01  1.50000000E+00  8.00000000E-01  8.00000000E-01
  1.50000000E+00  8.00000000E-01  8.00000000E-01  1.50000000E+00  8.00000000E-01
  8.00000000E-01  1.50000000E+00  8.00000000E-01  8.00000000E-01  1.50000000E+00
  8.00000000E-01  8.00000000E-01  1.50000000E+00  8.00000000E-01  8.00000000E-01
  1.50000000E+00  8.00000000E-01  8.00000000E-01  1.50000000E+00  8.00000000E-01
  8.00000000E-01  1.50000000E+00  8.00000000E-01  8.00000000E-01  1.50000000E+00
  8.00000000E-01  8.00000000E-01  1.50000000E+00  8.00000000E-01  8.00000000E-01
  1.50000000E+00  8.00000000E-01  8.00000000E-01  1.50000000E+00  8.00000000E-01
  8.00000000E-01  1.50000000E+00  8.00000000E-01  8.00000000E-01  1.50000000E+00
  8.00000000E-01  8.00000000E-01  1.50000000E+00  8.00000000E-01  8.00000000E-01
  1.50000000E+00  8.00000000E-01  8.00000000E-01  1.50000000E+00  8.00000000E-01
  8.00000000E-01  1.50000000E+00  8.00000000E-01  8.00000000E-01  1.50000000E+00
  8.00000000E-01  8.00000000E-01  1.50000000E+00  8.00000000E-01  8.00000000E-01
  1.50000000E+00  8.00000000E-01  8.00000000E-01  1.50000000E+00  8.00000000E-01
  8.00000000E-01  1.50000000E+00  8.00000000E-01  8.00000000E-01  1.50000000E+00
  8.00000000E-01  8.00000000E-01  1.50000000E+00  8.00000000E-01  8.00000000E-01
  1.50000000E+00  8.00000000E-01  8.00000000E-01  1.50000000E+00  8.00000000E-01
  8.00000000E-01  1.50000000E+00  8.00000000E-01  8.00000000E-01  1.50000000E+00
  8.00000000E-01  8.00000000E-01  1.50000000E+00  8.00000000E-01  8.00000000E-01
  1.50000000E+00  8.00000000E-01  8.00000000E-01  1.50000000E+00  8.00000000E-01
  8.00000000E-01  1.50000000E+00  8.00000000E-01  8.00000000E-01  1.50000000E+00
  8.00000000E-01  8.00000000E-01  1.50000000E+00  8.00000000E-01  8.00000000E-01
  1.50000000E+00  8.00000000E-01  8.00000000E-01  1.50000000E+00  8.00000000E-01
  8.00000000E-01  1.50000000E+00  8.00000000E-01  8.00000000E-01  1.50000000E+00
  8.00000000E-01  8.00000000E-01  1.50000000E+00  8.00000000E-01  8.00000000E-01
  1.50000000E+00  8.00000000E-01  8.00000000E-01  1.50000000E+00  8.00000000E-01
  8.00000000E-01  1.50000000E+00  8.00000000E-01  8.00000000E-01  1.50000000E+00
  8.00000000E-01  8.00000000E-01  1.50000000E+00  8.00000000E-01  8.00000000E-01
  1.50000000E+00  8.00000000E-01  8.00000000E-01  1.50000000E+00  8.00000000E-01
  8.00000000E-01  1.50000000E+00  8.00000000E-01  8.00000000E-01  1.50000000E+00
  8.00000000E-01  8.00000000E-01  1.50000000E+00  8.00000000E-01  8.00000000E-01
  1.50000000E+00  8.00000000E-01  8.00000000E-01  1.50000000E+00  8.00000000E-01
  8.00000000E-01  1.50000000E+00  8.00000000E-01  8.00000000E-01  1.50000000E+00
  8.00000000E-01  8.00000000E-01  1.50000000E+00  8.00000000E-01  8.00000000E-01
  1.50000000E+00  8.00000000E-01  8.00000000E-01  1.50000000E+00  8.00000000E-01
  8.00000000E-01  1.50000000E+00  8.00000000E-01  8.00000000E-01  1.50000000E+00
  8.00000000E-01  8.00000000E-01  1.50000000E+00  8.00000000E-01  8.00000000E-01
  1.50000000E+00  8.00000000E-01  8.00000000E-01  1.50000000E+00  8.00000000E-01
  8.00000000E-01  1.50000000E+00  8.00000000E-01  8.00000000E-01  1.50000000E+00
  8.00000000E-01  8.00000000E-01  1.50000000E+00  8.00000000E-01  8.00000000E-01
  1.50000000E+00  8.00000000E-01  8.00000000E-01  1.50000000E+00  8.00000000E-01
  8.00000000E-01  1.50000000E+00  8.00000000E-01  8.00000000E-01  1.50000000E+00
  8.00000000E-01  8.00000000E-01  1.50000000E+00  8.00000000E-01  8.00000000E-01
  1.50000000E+00  8.00000000E-01  8.00000000E-01  1.50000000E+00  8.00000000E-01
  8.00000000E-01  1.50000000E+00  8.00000000E-01  8.00000000E-01  1.50000000E+00
  8.00000000E-01  8.00000000E-01  1.50000000E+00  8.00000000E-01  8.00000000E-01
  1.50000000E+00  8.00000000E-01  8.00000000E-01  1.50000000E+00  8.00000000E-01
  8.00000000E-01  1.50000000E+00  8.00000000E-01  8.00000000E-01  1.50000000E+00
  8.00000000E-01  8.00000000E-01  1.50000000E+00  8.00000000E-01  8.00000000E-01
  1.50000000E+00  8.00000000E-01  8.00000000E-01  1.50000000E+00  8.00000000E-01
  8.00000000E-01  1.50000000E+00  8.00000000E-01  8.00000000E-01  1.50000000E+00
  8.00000000E-01  8.00000000E-01  1.50000000E+00  8.00000000E-01  8.00000000E-01
  1.50000000E+00  8.00000000E-01  8.00000000E-01  1.50000000E+00  8.00000000E-01
  8.00000000E-01  1.50000000E+00  8.00000000E-01  8.00000000E-01  1.50000000E+00
  8.00000000E-01  8.00000000E-01  1.50000000E+00  8.00000000E-01  8.00000000E-01
  1.50000000E+00  8.00000000E-01  8.00000000E-01  1.50000000E+00  8.00000000E-01
  8.00000000E-01  1.50000000E+00  8.00000000E-01  8.00000000E-01  1.50000000E+00
  8.00000000E-01  8.00000000E-01  1.50000000E+00  8.00000000E-01  8.00000000E-01
  1.50000000E+00  8.00000000E-01  8.00000000E-01  1.50000000E+00  8.00000000E-01
  8.00000000E-01  1.50000000E+00  8.00000000E-01  8.00000000E-01  1.50000000E+00
  8.00000000E-01  8.00000000E-01  1.50000000E+00  8.00000000E-01  8.00000000E-01
  1.50000000E+00  8.00000000E-01  8.00000000E-01  1.50000000E+00  8.00000000E-01
  8.00000000E-01  1.50000000E+00  8.00000000E-01  8.00000000E-01  1.50000000E+00
  8.00000000E-01  8.00000000E-01  1.50000000E+00  8.00000000E-01  8.00000000E-01
  1.50000000E+00  8.00000000E-01  8.00000000E-01  1.50000000E+00  8.00000000E-01
  8.00000000E-01  1.50000000E+00  8.00000000E-01  8.00000000E-01  1.50000000E+00
  8.00000000E-01  8.00000000E-01  1.50000000E+00  8.00000000E-01  8.00000000E-01
  1.50000000E+00  8.00000000E-01  8.00000000E-01  1.50000000E+00  8.00000000E-01
  8.00000000E-01  1.50000000E+00  8.00000000E-01  8.00000000E-01  1.50000000E+00
  8.00000000E-01  8.00000000E-01  1.50000000E+00  8.00000000E-01  8.00000000E-01
  1.50000000E+00  8.00000000E-01  8.00000000E-01  1.50000000E+00  8.00000000E-01
  8.00000000E-01  1.50000000E+00  8.00000000E-01  8.00000000E-01  1.50000000E+00
  8.00000000E-01  8.00000000E-01  1.50000000E+00  8.00000000E-01  8.00000000E-01
  1.50000000E+00  8.00000000E-01  8.00000000E-01  1.50000000E+00  8.00000000E-01
  8.00000000E-01  1.50000000E+00  8.00000000E-01  8.00000000E-01  1.50000000E+00
  8.00000000E-01  8.00000000E-01  1.50000000E+00  8.00000000E-01  8.00000000E-01
  1.50000000E+00  8.00000000E-01  8.00000000E-01  1.50000000E+00  8.00000000E-01
  8.00000000E-01  1.50000000E+00  8.00000000E-01  8.00000000E-01  1.50000000E+00
  8.00000000E-01  8.00000000E-01  1.50000000E+00  8.00000000E-01  8.00000000E-01
  1.50000000E+00  8.00000000E-01  8.00000000E-01  1.50000000E+00  8.00000000E-01
  8.00000000E-01  1.50000000E+00  8.00000000E-01  8.00000000E-01  1.50000000E+00
  8.00000000E-01  8.00000000E-01  1.50000000E+00  8.00000000E-01  8.00000000E-01
  1.50000000E+00  8.00000000E-01  8.00000000E-01  1.50000000E+00  8.00000000E-01
  8.00000000E-01  1.50000000E+00  8.00000000E-01  8.00000000E-01  1.50000000E+00
  8.00000000E-01  8.00000000E-01  1.50000000E+00  8.00000000E-01  8.00000000E-01
  1.50000000E+00  8.00000000E-01  8.00000000E-01  1.50000000E+00  8.00000000E-01
  8.00000000E-01  1.50000000E+00  8.00000000E-01  8.00000000E-01  1.50000000E+00
  8.00000000E-01  8.00000000E-01  1.50000000E+00  8.00000000E-01  8.00000000E-01
  1.50000000E+00  8.00000000E-01  8.00000000E-01  1.50000000E+00  8.00000000E-01
  8.00000000E-01  1.50000000E+00  8.00000000E-01  8.00000000E-01  1.50000000E+00
  8.00000000E-01  8.00000000E-01  1.50000000E+00  8.00000000E-01  8.00000000E-01
  1.50000000E+00  8.00000000E-01  8.00000000E-01  1.50000000E+00  8.00000000E-01
  8.00000000E-01  1.50000000E+00  8.00000000E-01  8.00000000E-01  1.50000000E+00
  8.00000000E-01  8.00000000E-01  1.50000000E+00  8.00000000E-01  8.00000000E-01
  1.50000000E+00  8.00000000E-01  8.00000000E-01  1.50000000E+00  8.00000000E-01
  8.00000000E-01  1.50000000E+00  8.00000000E-01  8.00000000E-01  1.50000000E+00
  8.00000000E-01  8.00000000E-01  1.50000000E+00  8.00000000E-01  8.00000000E-01
  1.50000000E+00  8.00000000E-01  8.00000000E-01  1.50000000E+00  8.00000000E-01
  8.00000000E-01  1.50000000E+00  8.00000000E-01  8.00000000E-01  1.50000000E+00
  8.00000000E-01  8.00000000E-01  1.50000000E+00  8.00000000E-01  8.00000000E-01
  1.50000000E+00  8.00000000E-01  8.00000000E-01  1.50000000E+00  8.00000000E-01
  8.00000000E-01  1.50000000E+00  8.00000000E-01  8.00000000E-01  1.50000000E+00
  8.00000000E-01  8.00000000E-01  1.50000000E+00  8.00000000E-01  8.00000000E-01
  1.50000000E+00  8.00000000E-01  8.00000000E-01  1.50000000E+00  8.00000000E-01
  8.00000000E-01  1.50000000E+00  8.00000000E-01  8.00000000E-01  1.50000000E+00
  8.00000000E-01  8.00000000E-01  1.50000000E+00  8.00000000E-01  8.00000000E-01
  1.50000000E+00  8.00000000E-01  8.00000000E-01  1.50000000E+00  8.00000000E-01
  8.00000000E-01  1.50000000E+00  8.00000000E-01  8.00000000E-01  1.50000000E+00
  8.00000000E-01  8.00000000E-01  1.50000000E+00  8.00000000E-01  8.00000000E-01
  1.50000000E+00  8.00000000E-01  8.00000000E-01  1.50000000E+00  8.00000000E-01
  8.00000000E-01  1.50000000E+00  8.00000000E-01  8.00000000E-01  1.50000000E+00
  8.00000000E-01  8.00000000E-01  1.50000000E+00  8.00000000E-01  8.00000000E-01
  1.50000000E+00  8.00000000E-01  8.00000000E-01  1.50000000E+00  8.00000000E-01
  8.00000000E-01  1.50000000E+00  8.00000000E-01  8.00000000E-01  1.50000000E+00
  8.00000000E-01  8.00000000E-01  1.50000000E+00  8.00000000E-01  8.00000000E-01
  1.50000000E+00  8.00000000E-01  8.00000000E-01  1.50000000E+00  8.00000000E-01
  8.00000000E-01  1.50000000E+00  8.00000000E-01  8.00000000E-01  1.50000000E+00
  8.00000000E-01  8.00000000E-01  1.50000000E+00  8.00000000E-01  8.00000000E-01
  1.50000000E+00  8.00000000E-01  8.00000000E-01  1.50000000E+00  8.00000000E-01
  8.00000000E-01  1.50000000E+00  8.00000000E-01  8.00000000E-01  1.50000000E+00
  8.00000000E-01  8.00000000E-01  1.50000000E+00  8.00000000E-01  8.00000000E-01
  1.50000000E+00  8.00000000E-01  8.00000000E-01  1.50000000E+00  8.00000000E-01
  8.00000000E-01  1.50000000E+00  8.00000000E-01  8.00000000E-01  1.50000000E+00
  8.00000000E-01  8.00000000E-01  1.50000000E+00  8.00000000E-01  8.00000000E-01
  1.50000000E+00  8.00000000E-01  8.00000000E-01  1.50000000E+00  8.00000000E-01
  8.00000000E-01  1.50000000E+00  8.00000000E-01  8.00000000E-01  1.50000000E+00
  8.00000000E-01  8.00000000E-01  1.50000000E+00  8.00000000E-01  8.00000000E-01
  1.50000000E+00  8.00000000E-01  8.00000000E-01  1.50000000E+00  8.00000000E-01
  8.00000000E-01  1.50000000E+00  8.00000000E-01  8.00000000E-01  1.50000000E+00
  8.00000000E-01  8.00000000E-01  1.50000000E+00  8.00000000E-01  8.00000000E-01
  1.50000000E+00  8.00000000E-01  8.00000000E-01  1.50000000E+00  8.00000000E-01
  8.00000000E-01  1.50000000E+00  8.00000000E-01  8.00000000E-01  1.50000000E+00
  8.00000000E-01  8.00000000E-01  1.50000000E+00  8.00000000E-01  8.00000000E-01
  1.50000000E+00  8.00000000E-01  8.00000000E-01  1.50000000E+00  8.00000000E-01
  8.00000000E-01  1.50000000E+00  8.00000000E-01  8.00000000E-01  1.50000000E+00
  8.00000000E-01  8.00000000E-01  1.50000000E+00  8.00000000E-01  8.00000000E-01
  1.50000000E+00  8.00000000E-01  8.00000000E-01  1.50000000E+00  8.00000000E-01
  8.00000000E-01  1.50000000E+00  8.00000000E-01  8.00000000E-01  1.50000000E+00
  8.00000000E-01  8.00000000E-01  1.50000000E+00  8.00000000E-01  8.00000000E-01
  1.50000000E+00  8.00000000E-01  8.00000000E-01  1.50000000E+00  8.00000000E-01
  8.00000000E-01  1.50000000E+00  8.00000000E-01  8.00000000E-01  1.50000000E+00
  8.00000000E-01  8.00000000E-01  1.50000000E+00  8.00000000E-01  8.00000000E-01
  1.50000000E+00  8.00000000E-01  8.00000000E-01  1.50000000E+00  8.00000000E-01
  8.00000000E-01  1.50000000E+00  8.00000000E-01  8.00000000E-01  1.50000000E+00
  8.00000000E-01  8.00000000E-01  1.50000000E+00  8.00000000E-01  8.00000000E-01
  1.50000000E+00  8.00000000E-01  8.00000000E-01  1.50000000E+00  8.00000000E-01
  8.00000000E-01  1.50000000E+00  8.00000000E-01  8.00000000E-01  1.50000000E+00
  8.00000000E-01  8.00000000E-01  1.50000000E+00  8.00000000E-01  8.00000000E-01
  1.50000000E+00  8.00000000E-01  8.00000000E-01  1.50000000E+00  8.00000000E-01
  8.00000000E-01  1.50000000E+00  8.00000000E-01  8.00000000E-01  1.50000000E+00
  8.00000000E-01  8.00000000E-01  1.50000000E+00  8.00000000E-01  8.00000000E-01
  1.50000000E+00  8.00000000E-01  8.00000000E-01  1.50000000E+00  8.00000000E-01
  8.00000000E-01  1.50000000E+00  8.00000000E-01  8.00000000E-01  1.50000000E+00
  8.00000000E-01  8.00000000E-01  1.50000000E+00  8.00000000E-01  8.00000000E-01
  1.50000000E+00  8.00000000E-01  8.00000000E-01  1.50000000E+00  8.00000000E-01
  8.00000000E-01  1.50000000E+00  8.00000000E-01  8.00000000E-01  1.50000000E+00
  8.00000000E-01  8.00000000E-01  1.50000000E+00  8.00000000E-01  8.00000000E-01
  1.50000000E+00  8.00000000E-01  8.00000000E-01  1.50000000E+00  8.00000000E-01
  8.00000000E-01  1.50000000E+00  8.00000000E-01  8.00000000E-01  1.50000000E+00
  8.00000000E-01  8.00000000E-01  1.50000000E+00  8.00000000E-01  8.00000000E-01
  1.50000000E+00  8.00000000E-01  8.00000000E-01  1.50000000E+00  8.00000000E-01
  8.00000000E-01  1.50000000E+00  8.00000000E-01  8.00000000E-01  1.50000000E+00
  8.00000000E-01  8.00000000E-01  1.50000000E+00  8.00000000E-01  8.00000000E-01
  1.50000000E+00  8.00000000E-01  8.00000000E-01  1.50000000E+00  8.00000000E-01
  8.00000000E-01  1.50000000E+00  8.00000000E-01  8.00000000E-01  1.50000000E+00
  8.00000000E-01  8.00000000E-01  1.50000000E+00  8.00000000E-01  8.00000000E-01
  1.50000000E+00  8.00000000E-01  8.00000000E-01  1.50000000E+00  8.00000000E-01
  8.00000000E-01  1.50000000E+00  8.00000000E-01  8.00000000E-01  1.50000000E+00
  8.00000000E-01  8.00000000E-01  1.50000000E+00  8.00000000E-01  8.00000000E-01
  1.50000000E+00  8.00000000E-01  8.00000000E-01  1.50000000E+00  8.00000000E-01
  8.00000000E-01  1.50000000E+00  8.00000000E-01  8.00000000E-01  1.50000000E+00
  8.00000000E-01  8.00000000E-01  1.50000000E+00  8.00000000E-01  8.00000000E-01
  1.50000000E+00  8.00000000E-01  8.00000000E-01  1.50000000E+00  8.00000000E-01
  8.00000000E-01  1.50000000E+00  8.00000000E-01  8.00000000E-01  1.50000000E+00
  8.00000000E-01  8.00000000E-01  1.50000000E+00  8.00000000E-01  8.00000000E-01
  1.50000000E+00  8.00000000E-01  8.00000000E-01  1.50000000E+00  8.00000000E-01
  8.00000000E-01  1.50000000E+00  8.00000000E-01  8.00000000E-01  1.50000000E+00
  8.00000000E-01  8.00000000E-01  1.50000000E+00  8.00000000E-01  8.00000000E-01
  1.50000000E+00  8.00000000E-01  8.00000000E-01  1.50000000E+00  8.00000000E-01
  8.00000000E-01  1.50000000E+00  8.00000000E-01  8.00000000E-01  1.50000000E+00
  8.00000000E-01  8.00000000E-01  1.50000000E+00  8.00000000E-01  8.00000000E-01
  1.50000000E+00  8.00000000E-01  8.00000000E-01  1.50000000E+00  8.00000000E-01
  8.00000000E-01  1.50000000E+00  8.00000000E-01  8.00000000E-01  1.50000000E+00
  8.00000000E-01  8.00000000E-01  1.50000000E+00  8.00000000E-01  8.00000000E-01
  1.50000000E+00  8.00000000E-01  8.00000000E-01  1.50000000E+00  8.00000000E-01
  8.00000000E-01  1.50000000E+00  8.00000000E-01  8.00000000E-01  1.50000000E+00
  8.00000000E-01  8.00000000E-01  1.50000000E+00  8.00000000E-01  8.00000000E-01
  1.50000000E+00  8.00000000E-01  8.00000000E-01  1.50000000E+00  8.00000000E-01
  8.00000000E-01  1.50000000E+00  8.00000000E-01  8.00000000E-01  1.50000000E+00
  8.00000000E-01  8.00000000E-01  1.50000000E+00  8.00000000E-01  8.00000000E-01
  1.50000000E+00  8.00000000E-01  8.00000000E-01  1.50000000E+00  8.00000000E-01
  8.00000000E-01  1.50000000E+00  8.00000000E-01  8.00000000E-01  1.50000000E+00
  8.00000000E-01  8.00000000E-01  1.50000000E+00  8.00000000E-01  8.00000000E-01
  1.50000000E+00  8.00000000E-01  8.00000000E-01  1.50000000E+00  8.00000000E-01
  8.00000000E-01  1.50000000E+00  8.00000000E-01  8.00000000E-01  1.50000000E+00
  8.00000000E-01  8.00000000E-01  1.50000000E+00  8.00000000E-01  8.00000000E-01
  1.50000000E+00  8.00000000E-01  8.00000000E-01  1.50000000E+00  8.00000000E-01
  8.00000000E-01  1.50000000E+00  8.00000000E-01  8.00000000E-01  1.50000000E+00
  8.00000000E-01  8.00000000E-01  1.50000000E+00  8.00000000E-01  8.00000000E-01
  1.50000000E+00  8.00000000E-01  8.00000000E-01  1.50000000E+00  8.00000000E-01
  8.00000000E-01  1.50000000E+00  8.00000000E-01  8.00000000E-01  1.50000000E+00
  8.00000000E-01  8.00000000E-01  1.50000000E+00  8.00000000E-01  8.00000000E-01
  1.50000000E+00  8.00000000E-01  8.00000000E-01  1.50000000E+00  8.00000000E-01
  8.00000000E-01  1.50000000E+00  8.00000000E-01  8.00000000E-01  1.50000000E+00
  8.00000000E-01  8.00000000E-01  1.50000000E+00  8.00000000E-01  8.00000000E-01
  1.50000000E+00  8.00000000E-01  8.00000000E-01  1.50000000E+00  8.00000000E-01
  8.00000000E-01  1.50000000E+00  8.00000000E-01  8.00000000E-01  1.50000000E+00
  8.00000000E-01  8.00000000E-01  1.50000000E+00  8.00000000E-01  8.00000000E-01
  1.50000000E+00  8.00000000E-01  8.00000000E-01  1.50000000E+00  8.00000000E-01
  8.00000000E-01  1.50000000E+00  8.00000000E-01  8.00000000E-01  1.50000000E+00
  8.00000000E-01  8.00000000E-01  1.50000000E+00  8.00000000E-01  8.00000000E-01
  1.50000000E+00  8.00000000E-01  8.00000000E-01  1.50000000E+00  8.00000000E-01
  8.00000000E-01  1.50000000E+00  8.00000000E-01  8.00000000E-01  1.50000000E+00
  8.00000000E-01  8.00000000E-01  1.50000000E+00  8.00000000E-01  8.00000000E-01
  1.50000000E+00  8.00000000E-01  8.00000000E-01  1.50000000E+00  8.00000000E-01
  8.00000000E-01  1.50000000E+00  8.00000000E-01  8.00000000E-01  1.50000000E+00
  8.00000000E-01  8.00000000E-01  1.50000000E+00  8.00000000E-01  8.00000000E-01
  1.50000000E+00  8.00000000E-01  8.00000000E-01  1.50000000E+00  8.00000000E-01
  8.00000000E-01  1.50000000E+00  8.00000000E-01  8.00000000E-01  1.50000000E+00
  8.00000000E-01  8.00000000E-01  1.50000000E+00  8.00000000E-01  8.00000000E-01
  1.50000000E+00  8.00000000E-01  8.00000000E-01  1.50000000E+00  8.00000000E-01
  8.00000000E-01  1.50000000E+00  8.00000000E-01  8.00000000E-01  1.50000000E+00
  8.00000000E-01  8.00000000E-01  1.50000000E+00  8.00000000E-01  8.00000000E-01
  1.50000000E+00  8.00000000E-01  8.00000000E-01  1.50000000E+00  8.00000000E-01
  8.00000000E-01  1.50000000E+00  8.00000000E-01  8.00000000E-01  1.50000000E+00
  8.00000000E-01  8.00000000E-01  1.50000000E+00  8.00000000E-01  8.00000000E-01
  1.50000000E+00  8.00000000E-01  8.00000000E-01  1.50000000E+00  8.00000000E-01
  8.00000000E-01  1.50000000E+00  8.00000000E-01  8.00000000E-01  1.50000000E+00
  8.00000000E-01  8.00000000E-01  1.50000000E+00  8.00000000E-01  8.00000000E-01
  1.50000000E+00  8.00000000E-01  8.00000000E-01  1.50000000E+00  8.00000000E-01
  8.00000000E-01  1.50000000E+00  8.00000000E-01  8.00000000E-01  1.50000000E+00
  8.00000000E-01  8.00000000E-01  1.50000000E+00  8.00000000E-01  8.00000000E-01
  1.50000000E+00  8.00000000E-01  8.00000000E-01  1.50000000E+00  8.00000000E-01
  8.00000000E-01  1.50000000E+00  8.00000000E-01  8.00000000E-01  1.50000000E+00
  8.00000000E-01  8.00000000E-01  1.50000000E+00  8.00000000E-01  8.00000000E-01
  1.50000000E+00  8.00000000E-01  8.00000000E-01  1.50000000E+00  8.00000000E-01
  8.00000000E-01  1.50000000E+00  8.00000000E-01  8.00000000E-01  1.50000000E+00
  8.00000000E-01  8.00000000E-01  1.50000000E+00  8.00000000E-01  8.00000000E-01
  1.50000000E+00  8.00000000E-01  8.00000000E-01  1.50000000E+00  8.00000000E-01
  8.00000000E-01  1.50000000E+00  8.00000000E-01  8.00000000E-01  1.50000000E+00
  8.00000000E-01  8.00000000E-01  1.50000000E+00  8.00000000E-01  8.00000000E-01
  1.50000000E+00  8.00000000E-01  8.00000000E-01  1.50000000E+00  8.00000000E-01
  8.00000000E-01  1.50000000E+00  8.00000000E-01  8.00000000E-01  1.50000000E+00
  8.00000000E-01  8.00000000E-01  1.50000000E+00  8.00000000E-01  8.00000000E-01
  1.50000000E+00  8.00000000E-01  8.00000000E-01  1.50000000E+00  8.00000000E-01
  8.00000000E-01  1.50000000E+00  8.00000000E-01  8.00000000E-01  1.50000000E+00
  8.00000000E-01  8.00000000E-01  1.50000000E+00  8.00000000E-01  8.00000000E-01
  1.50000000E+00  8.00000000E-01  8.00000000E-01  1.50000000E+00  8.00000000E-01
  8.00000000E-01  1.50000000E+00  8.00000000E-01  8.00000000E-01  1.50000000E+00
  8.00000000E-01  8.00000000E-01  1.50000000E+00  8.00000000E-01  8.00000000E-01
  1.50000000E+00  8.00000000E-01  8.00000000E-01  1.50000000E+00  8.00000000E-01
  8.00000000E-01  1.50000000E+00  8.00000000E-01  8.00000000E-01  1.50000000E+00
  8.00000000E-01  8.00000000E-01  1.50000000E+00  8.00000000E-01  8.00000000E-01
  1.50000000E+00  8.00000000E-01  8.00000000E-01  1.50000000E+00  8.00000000E-01
  8.00000000E-01  1.50000000E+00  8.00000000E-01  8.00000000E-01  1.50000000E+00
  8.00000000E-01  8.00000000E-01  1.50000000E+00  8.00000000E-01  8.00000000E-01
  1.50000000E+00  8.00000000E-01  8.00000000E-01  1.50000000E+00  8.00000000E-01
  8.00000000E-01  1.50000000E+00  8.00000000E-01  8.00000000E-01  1.50000000E+00
  8.00000000E-01  8.00000000E-01  1.50000000E+00  8.00000000E-01  8.00000000E-01
  1.50000000E+00  8.00000000E-01  8.00000000E-01  1.50000000E+00  8.00000000E-01
  8.00000000E-01  1.50000000E+00  8.00000000E-01  8.00000000E-01  1.50000000E+00
  8.00000000E-01  8.00000000E-01  1.50000000E+00  8.00000000E-01  8.00000000E-01
  1.50000000E+00  8.00000000E-01  8.00000000E-01  1.50000000E+00  8.00000000E-01
  8.00000000E-01  1.50000000E+00  8.00000000E-01  8.00000000E-01  1.50000000E+00
  8.00000000E-01  8.00000000E-01  1.50000000E+00  8.00000000E-01  8.00000000E-01
  1.50000000E+00  8.00000000E-01  8.00000000E-01  1.50000000E+00  8.00000000E-01
  8.00000000E-01  1.50000000E+00  8.00000000E-01  8.00000000E-01  1.50000000E+00
  8.00000000E-01  8.00000000E-01  1.50000000E+00  8.00000000E-01  8.00000000E-01
  1.50000000E+00  8.00000000E-01  8.00000000E-01  1.50000000E+00  8.00000000E-01
  8.00000000E-01  1.50000000E+00  8.00000000E-01  8.00000000E-01  1.50000000E+00
  8.00000000E-01  8.00000000E-01  1.50000000E+00  8.00000000E-01  8.00000000E-01
  1.50000000E+00  8.00000000E-01  8.00000000E-01  1.50000000E+00  8.00000000E-01
  8.00000000E-01  1.50000000E+00  8.00000000E-01  8.00000000E-01  1.50000000E+00
  8.00000000E-01  8.00000000E-01  1.50000000E+00  8.00000000E-01  8.00000000E-01
  1.50000000E+00  8.00000000E-01  8.00000000E-01  1.50000000E+00  8.00000000E-01
  8.00000000E-01  1.50000000E+00  8.00000000E-01  8.00000000E-01  1.50000000E+00
  8.00000000E-01  8.00000000E-01  1.50000000E+00  8.00000000E-01  8.00000000E-01
  1.50000000E+00  8.00000000E-01  8.00000000E-01  1.50000000E+00  8.00000000E-01
  8.00000000E-01  1.50000000E+00  8.00000000E-01  8.00000000E-01  1.50000000E+00
  8.00000000E-01  8.00000000E-01  1.50000000E+00  8.00000000E-01  8.00000000E-01
  1.50000000E+00  8.00000000E-01  8.00000000E-01  1.50000000E+00  8.00000000E-01
  8.00000000E-01  1.50000000E+00  8.00000000E-01  8.00000000E-01  1.50000000E+00
  8.00000000E-01  8.00000000E-01  1.50000000E+00  8.00000000E-01  8.00000000E-01
  1.50000000E+00  8.00000000E-01  8.00000000E-01  1.50000000E+00  8.00000000E-01
  8.00000000E-01  1.50000000E+00  8.00000000E-01  8.00000000E-01  1.50000000E+00
  8.00000000E-01  8.00000000E-01  1.50000000E+00  8.00000000E-01  8.00000000E-01
  1.50000000E+00  8.00000000E-01  8.00000000E-01  1.50000000E+00  8.00000000E-01
  8.00000000E-01  1.50000000E+00  8.00000000E-01  8.00000000E-01  1.50000000E+00
  8.00000000E-01  8.00000000E-01  1.50000000E+00  8.00000000E-01  8.00000000E-01
  1.50000000E+00  8.00000000E-01  8.00000000E-01  1.50000000E+00  8.00000000E-01
  8.00000000E-01  1.50000000E+00  8.00000000E-01  8.00000000E-01  1.50000000E+00
  8.00000000E-01  8.00000000E-01  1.50000000E+00  8.00000000E-01  8.00000000E-01
  1.50000000E+00  8.00000000E-01  8.00000000E-01  1.50000000E+00  8.00000000E-01
  8.00000000E-01  1.50000000E+00  8.00000000E-01  8.00000000E-01  1.50000000E+00
  8.00000000E-01  8.00000000E-01  1.50000000E+00  8.00000000E-01  8.00000000E-01
  1.50000000E+00  8.00000000E-01  8.00000000E-01  1.50000000E+00  8.00000000E-01
  8.00000000E-01  1.50000000E+00  8.00000000E-01  8.00000000E-01  1.50000000E+00
  8.00000000E-01  8.00000000E-01  1.50000000E+00  8.00000000E-01  8.00000000E-01
  1.50000000E+00  8.00000000E-01  8.00000000E-01  1.50000000E+00  8.00000000E-01
  8.00000000E-01  1.50000000E+00  8.00000000E-01  8.00000000E-01  1.50000000E+00
  8.00000000E-01  8.00000000E-01  1.50000000E+00  8.00000000E-01  8.00000000E-01
  1.50000000E+00  8.00000000E-01  8.00000000E-01  1.50000000E+00  8.00000000E-01
  8.00000000E-01  1.50000000E+00  8.00000000E-01  8.00000000E-01  1.50000000E+00
  8.00000000E-01  8.00000000E-01  1.50000000E+00  8.00000000E-01  8.00000000E-01
  1.50000000E+00  8.00000000E-01  8.00000000E-01  1.50000000E+00  8.00000000E-01
  8.00000000E-01  1.50000000E+00  8.00000000E-01  8.00000000E-01  1.50000000E+00
  8.00000000E-01  8.00000000E-01  1.50000000E+00  8.00000000E-01  8.00000000E-01
  1.50000000E+00  8.00000000E-01  8.00000000E-01  1.50000000E+00  8.00000000E-01
  8.00000000E-01  1.50000000E+00  8.00000000E-01  8.00000000E-01  1.50000000E+00
  8.00000000E-01  8.00000000E-01  1.50000000E+00  8.00000000E-01  8.00000000E-01
  1.50000000E+00  8.00000000E-01  8.00000000E-01  1.50000000E+00  8.00000000E-01
  8.00000000E-01  1.50000000E+00  8.00000000E-01  8.00000000E-01  1.50000000E+00
  8.00000000E-01  8.00000000E-01  1.50000000E+00  8.00000000E-01  8.00000000E-01
  1.50000000E+00  8.00000000E-01  8.00000000E-01  1.50000000E+00  8.00000000E-01
  8.00000000E-01  1.50000000E+00  8.00000000E-01  8.00000000E-01  1.50000000E+00
  8.00000000E-01  8.00000000E-01  1.50000000E+00  8.00000000E-01  8.00000000E-01
  1.50000000E+00  8.00000000E-01  8.00000000E-01  1.50000000E+00  8.00000000E-01
  8.00000000E-01  1.50000000E+00  8.00000000E-01  8.00000000E-01  1.50000000E+00
  8.00000000E-01  8.00000000E-01  1.50000000E+00  8.00000000E-01  8.00000000E-01
  1.50000000E+00  8.00000000E-01  8.00000000E-01  1.50000000E+00  8.00000000E-01
  8.00000000E-01  1.50000000E+00  8.00000000E-01  8.00000000E-01  1.50000000E+00
  8.00000000E-01  8.00000000E-01  1.50000000E+00  8.00000000E-01  8.00000000E-01
  1.50000000E+00  8.00000000E-01  8.00000000E-01  1.50000000E+00  8.00000000E-01
  8.00000000E-01  1.50000000E+00  8.00000000E-01  8.00000000E-01  1.50000000E+00
  8.00000000E-01  8.00000000E-01  1.50000000E+00  8.00000000E-01  8.00000000E-01
  1.50000000E+00  8.00000000E-01  8.00000000E-01  1.50000000E+00  8.00000000E-01
  8.00000000E-01  1.50000000E+00  8.00000000E-01  8.00000000E-01  1.50000000E+00
  8.00000000E-01  8.00000000E-01  1.50000000E+00  8.00000000E-01  8.00000000E-01
  1.50000000E+00  8.00000000E-01  8.00000000E-01  1.50000000E+00  8.00000000E-01
  8.00000000E-01  1.50000000E+00  8.00000000E-01  8.00000000E-01  1.50000000E+00
  8.00000000E-01  8.00000000E-01  1.50000000E+00  8.00000000E-01  8.00000000E-01
  1.50000000E+00  8.00000000E-01  8.00000000E-01  1.50000000E+00  8.00000000E-01
  8.00000000E-01  1.50000000E+00  8.00000000E-01  8.00000000E-01  1.50000000E+00
  8.00000000E-01  8.00000000E-01  1.50000000E+00  8.00000000E-01  8.00000000E-01
  1.50000000E+00  8.00000000E-01  8.00000000E-01  1.50000000E+00  8.00000000E-01
  8.00000000E-01  1.50000000E+00  8.00000000E-01  8.00000000E-01  1.50000000E+00
  8.00000000E-01  8.00000000E-01  1.50000000E+00  8.00000000E-01  8.00000000E-01
  1.50000000E+00  8.00000000E-01  8.00000000E-01  1.50000000E+00  8.00000000E-01
  8.00000000E-01  1.50000000E+00  8.00000000E-01  8.00000000E-01  1.50000000E+00
  8.00000000E-01  8.00000000E-01  1.50000000E+00  8.00000000E-01  8.00000000E-01
  1.50000000E+00  8.00000000E-01  8.00000000E-01  1.50000000E+00  8.00000000E-01
  8.00000000E-01  1.50000000E+00  8.00000000E-01  8.00000000E-01  1.50000000E+00
  8.00000000E-01  8.00000000E-01  1.50000000E+00  8.00000000E-01  8.00000000E-01
  1.50000000E+00  8.00000000E-01  8.00000000E-01  1.50000000E+00  8.00000000E-01
  8.00000000E-01  1.50000000E+00  8.00000000E-01  8.00000000E-01  1.50000000E+00
  8.00000000E-01  8.00000000E-01  1.50000000E+00  8.00000000E-01  8.00000000E-01
  1.50000000E+00  8.00000000E-01  8.00000000E-01  1.50000000E+00  8.00000000E-01
  8.00000000E-01  1.50000000E+00  8.00000000E-01  8.00000000E-01  1.50000000E+00
  8.00000000E-01  8.00000000E-01  1.50000000E+00  8.00000000E-01  8.00000000E-01
  1.50000000E+00  8.00000000E-01  8.00000000E-01  1.50000000E+00  8.00000000E-01
  8.00000000E-01  1.50000000E+00  8.00000000E-01  8.00000000E-01  1.50000000E+00
  8.00000000E-01  8.00000000E-01  1.50000000E+00  8.00000000E-01  8.00000000E-01
  1.50000000E+00  8.00000000E-01  8.00000000E-01  1.50000000E+00  8.00000000E-01
  8.00000000E-01  1.50000000E+00  8.00000000E-01  8.00000000E-01  1.50000000E+00
  8.00000000E-01  8.00000000E-01  1.50000000E+00  8.00000000E-01  8.00000000E-01
  1.50000000E+00  8.00000000E-01  8.00000000E-01  1.50000000E+00  8.00000000E-01
  8.00000000E-01  1.50000000E+00  8.00000000E-01  8.00000000E-01  1.50000000E+00
  8.00000000E-01  8.00000000E-01  1.50000000E+00  8.00000000E-01  8.00000000E-01
  1.50000000E+00  8.00000000E-01  8.00000000E-01  1.50000000E+00  8.00000000E-01
  8.00000000E-01  1.50000000E+00  8.00000000E-01  8.00000000E-01  1.50000000E+00
  8.00000000E-01  8.00000000E-01  1.50000000E+00  8.00000000E-01  8.00000000E-01
  1.50000000E+00  8.00000000E-01  8.00000000E-01  1.50000000E+00  8.00000000E-01
  8.00000000E-01  1.50000000E+00  8.00000000E-01  8.00000000E-01  1.50000000E+00
  8.00000000E-01  8.00000000E-01  1.50000000E+00  8.00000000E-01  8.00000000E-01
  1.50000000E+00  8.00000000E-01  8.00000000E-01  1.50000000E+00  8.00000000E-01
  8.00000000E-01  1.50000000E+00  8.00000000E-01  8.00000000E-01  1.50000000E+00
  8.00000000E-01  8.00000000E-01  1.50000000E+00  8.00000000E-01  8.00000000E-01
  1.50000000E+00  8.00000000E-01  8.00000000E-01  1.50000000E+00  8.00000000E-01
  8.00000000E-01  1.50000000E+00  8.00000000E-01  8.00000000E-01  1.50000000E+00
  8.00000000E-01  8.00000000E-01  1.50000000E+00  8.00000000E-01  8.00000000E-01
  1.50000000E+00  8.00000000E-01  8.00000000E-01  1.50000000E+00  8.00000000E-01
  8.00000000E-01  1.50000000E+00  8.00000000E-01  8.00000000E-01  1.50000000E+00
  8.00000000E-01  8.00000000E-01  1.50000000E+00  8.00000000E-01  8.00000000E-01
  1.50000000E+00  8.00000000E-01  8.00000000E-01  1.50000000E+00  8.00000000E-01
  8.00000000E-01  1.50000000E+00  8.00000000E-01  8.00000000E-01  1.50000000E+00
  8.00000000E-01  8.00000000E-01  1.50000000E+00  8.00000000E-01  8.00000000E-01
  1.50000000E+00  8.00000000E-01  8.00000000E-01  1.50000000E+00  8.00000000E-01
  8.00000000E-01  1.50000000E+00  8.00000000E-01  8.00000000E-01  1.50000000E+00
  8.00000000E-01  8.00000000E-01  1.50000000E+00  8.00000000E-01  8.00000000E-01
  1.50000000E+00  8.00000000E-01  8.00000000E-01  1.50000000E+00  8.00000000E-01
  8.00000000E-01  1.50000000E+00  8.00000000E-01  8.00000000E-01  1.50000000E+00
  8.00000000E-01  8.00000000E-01  1.50000000E+00  8.00000000E-01  8.00000000E-01
  1.50000000E+00  8.00000000E-01  8.00000000E-01  1.50000000E+00  8.00000000E-01
  8.00000000E-01  1.50000000E+00  8.00000000E-01  8.00000000E-01  1.50000000E+00
  8.00000000E-01  8.00000000E-01  1.50000000E+00  8.00000000E-01  8.00000000E-01
  1.50000000E+00  8.00000000E-01  8.00000000E-01  1.50000000E+00  8.00000000E-01
  8.00000000E-01  1.50000000E+00  8.00000000E-01  8.00000000E-01  1.50000000E+00
  8.00000000E-01  8.00000000E-01  1.50000000E+00  8.00000000E-01  8.00000000E-01
  1.50000000E+00  8.00000000E-01  8.00000000E-01  1.50000000E+00  8.00000000E-01
  8.00000000E-01  1.50000000E+00  8.00000000E-01  8.00000000E-01  1.50000000E+00
  8.00000000E-01  8.00000000E-01  1.50000000E+00  8.00000000E-01  8.00000000E-01
  1.50000000E+00  8.00000000E-01  8.00000000E-01  1.50000000E+00  8.00000000E-01
  8.00000000E-01  1.50000000E+00  8.00000000E-01  8.00000000E-01  1.50000000E+00
  8.00000000E-01  8.00000000E-01  1.50000000E+00  8.00000000E-01  8.00000000E-01
  1.50000000E+00  8.00000000E-01  8.00000000E-01  1.50000000E+00  8.00000000E-01
  8.00000000E-01  1.50000000E+00  8.00000000E-01  8.00000000E-01  1.50000000E+00
  8.00000000E-01  8.00000000E-01  1.50000000E+00  8.00000000E-01  8.00000000E-01
  1.50000000E+00  8.00000000E-01  8.00000000E-01  1.50000000E+00  8.00000000E-01
  8.00000000E-01  1.50000000E+00  8.00000000E-01  8.00000000E-01  1.50000000E+00
  8.00000000E-01  8.00000000E-01  1.50000000E+00  8.00000000E-01  8.00000000E-01
  1.50000000E+00  8.00000000E-01  8.00000000E-01  1.50000000E+00  8.00000000E-01
  8.00000000E-01  1.50000000E+00  8.00000000E-01  8.00000000E-01  1.50000000E+00
  8.00000000E-01  8.00000000E-01  1.50000000E+00  8.00000000E-01  8.00000000E-01
  1.50000000E+00  8.00000000E-01  8.00000000E-01  1.50000000E+00  8.00000000E-01
  8.00000000E-01  1.50000000E+00  8.00000000E-01  8.00000000E-01  1.50000000E+00
  8.00000000E-01  8.00000000E-01  1.50000000E+00  8.00000000E-01  8.00000000E-01
  1.50000000E+00  8.00000000E-01  8.00000000E-01  1.50000000E+00  8.00000000E-01
  8.00000000E-01  1.50000000E+00  8.00000000E-01  8.00000000E-01  1.50000000E+00
  8.00000000E-01  8.00000000E-01  1.50000000E+00  8.00000000E-01  8.00000000E-01
  1.50000000E+00  8.00000000E-01  8.00000000E-01  1.50000000E+00  8.00000000E-01
  8.00000000E-01  1.50000000E+00  8.00000000E-01  8.00000000E-01  1.50000000E+00
  8.00000000E-01  8.00000000E-01  1.50000000E+00  8.00000000E-01  8.00000000E-01
  1.50000000E+00  8.00000000E-01  8.00000000E-01  1.50000000E+00  8.00000000E-01
  8.00000000E-01  1.50000000E+00  8.00000000E-01  8.00000000E-01  1.50000000E+00
  8.00000000E-01  8.00000000E-01  1.50000000E+00  8.00000000E-01  8.00000000E-01
  1.50000000E+00  8.00000000E-01  8.00000000E-01  1.50000000E+00  8.00000000E-01
  8.00000000E-01  1.50000000E+00  8.00000000E-01  8.00000000E-01  1.50000000E+00
  8.00000000E-01  8.00000000E-01  1.50000000E+00  8.00000000E-01  8.00000000E-01
  1.50000000E+00  8.00000000E-01  8.00000000E-01  1.50000000E+00  8.00000000E-01
  8.00000000E-01  1.50000000E+00  8.00000000E-01  8.00000000E-01  1.50000000E+00
  8.00000000E-01  8.00000000E-01  1.50000000E+00  8.00000000E-01  8.00000000E-01
  1.50000000E+00  8.00000000E-01  8.00000000E-01  1.50000000E+00  8.00000000E-01
  8.00000000E-01  1.50000000E+00  8.00000000E-01  8.00000000E-01  1.50000000E+00
  8.00000000E-01  8.00000000E-01  1.50000000E+00  8.00000000E-01  8.00000000E-01
  1.50000000E+00  8.00000000E-01  8.00000000E-01  1.50000000E+00  8.00000000E-01
  8.00000000E-01  1.50000000E+00  8.00000000E-01  8.00000000E-01  1.50000000E+00
  8.00000000E-01  8.00000000E-01  1.50000000E+00  8.00000000E-01  8.00000000E-01
  1.50000000E+00  8.00000000E-01  8.00000000E-01  1.50000000E+00  8.00000000E-01
  8.00000000E-01  1.50000000E+00  8.00000000E-01  8.00000000E-01  1.50000000E+00
  8.00000000E-01  8.00000000E-01  1.50000000E+00  8.00000000E-01  8.00000000E-01
  1.50000000E+00  8.00000000E-01  8.00000000E-01  1.50000000E+00  8.00000000E-01
  8.00000000E-01  1.50000000E+00  8.00000000E-01  8.00000000E-01  1.50000000E+00
  8.00000000E-01  8.00000000E-01  1.50000000E+00  8.00000000E-01  8.00000000E-01
  1.50000000E+00  8.00000000E-01  8.00000000E-01  1.50000000E+00  8.00000000E-01
  8.00000000E-01  1.50000000E+00  8.00000000E-01  8.00000000E-01  1.50000000E+00
  8.00000000E-01  8.00000000E-01  1.50000000E+00  8.00000000E-01  8.00000000E-01
  1.50000000E+00  8.00000000E-01  8.00000000E-01  1.50000000E+00  8.00000000E-01
  8.00000000E-01  1.50000000E+00  8.00000000E-01  8.00000000E-01  1.50000000E+00
  8.00000000E-01  8.00000000E-01  1.50000000E+00  8.00000000E-01  8.00000000E-01
  1.50000000E+00  8.00000000E-01  8.00000000E-01  1.50000000E+00  8.00000000E-01
  8.00000000E-01  1.50000000E+00  8.00000000E-01  8.00000000E-01  1.50000000E+00
  8.00000000E-01  8.00000000E-01  1.50000000E+00  8.00000000E-01  8.00000000E-01
  1.50000000E+00  8.00000000E-01  8.00000000E-01  1.50000000E+00  8.00000000E-01
  8.00000000E-01  1.50000000E+00  8.00000000E-01  8.00000000E-01  1.50000000E+00
  8.00000000E-01  8.00000000E-01  1.50000000E+00  8.00000000E-01  8.00000000E-01
  1.50000000E+00  8.00000000E-01  8.00000000E-01  1.50000000E+00  8.00000000E-01
  8.00000000E-01  1.50000000E+00  8.00000000E-01  8.00000000E-01  1.50000000E+00
  8.00000000E-01  8.00000000E-01  1.50000000E+00  8.00000000E-01  8.00000000E-01
  1.50000000E+00  8.00000000E-01  8.00000000E-01  1.50000000E+00  8.00000000E-01
  8.00000000E-01  1.50000000E+00  8.00000000E-01  8.00000000E-01  1.50000000E+00
  8.00000000E-01  8.00000000E-01  1.50000000E+00  8.00000000E-01  8.00000000E-01
  1.50000000E+00  8.00000000E-01  8.00000000E-01  1.50000000E+00  8.00000000E-01
  8.00000000E-01  1.50000000E+00  8.00000000E-01  8.00000000E-01  1.50000000E+00
  8.00000000E-01  8.00000000E-01  1.50000000E+00  8.00000000E-01  8.00000000E-01
  1.50000000E+00  8.00000000E-01  8.00000000E-01  1.50000000E+00  8.00000000E-01
  8.00000000E-01  1.50000000E+00  8.00000000E-01  8.00000000E-01  1.50000000E+00
  8.00000000E-01  8.00000000E-01  1.50000000E+00  8.00000000E-01  8.00000000E-01
  1.50000000E+00  8.00000000E-01  8.00000000E-01  1.50000000E+00  8.00000000E-01
  8.00000000E-01  1.50000000E+00  8.00000000E-01  8.00000000E-01  1.50000000E+00
  8.00000000E-01  8.00000000E-01  1.50000000E+00  8.00000000E-01  8.00000000E-01
  1.50000000E+00  8.00000000E-01  8.00000000E-01  1.50000000E+00  8.00000000E-01
  8.00000000E-01  1.50000000E+00  8.00000000E-01  8.00000000E-01  1.50000000E+00
  8.00000000E-01  8.00000000E-01  1.50000000E+00  8.00000000E-01  8.00000000E-01
  1.50000000E+00  8.00000000E-01  8.00000000E-01  1.50000000E+00  8.00000000E-01
  8.00000000E-01  1.50000000E+00  8.00000000E-01  8.00000000E-01  1.50000000E+00
  8.00000000E-01  8.00000000E-01  1.50000000E+00  8.00000000E-01  8.00000000E-01
  1.50000000E+00  8.00000000E-01  8.00000000E-01  1.50000000E+00  8.00000000E-01
  8.00000000E-01  1.50000000E+00  8.00000000E-01  8.00000000E-01  1.50000000E+00
  8.00000000E-01  8.00000000E-01  1.50000000E+00  8.00000000E-01  8.00000000E-01
  1.50000000E+00  8.00000000E-01  8.00000000E-01  1.50000000E+00  8.00000000E-01
  8.00000000E-01  1.50000000E+00  8.00000000E-01  8.00000000E-01  1.50000000E+00
  8.00000000E-01  8.00000000E-01  1.50000000E+00  8.00000000E-01  8.00000000E-01
  1.50000000E+00  8.00000000E-01  8.00000000E-01  1.50000000E+00  8.00000000E-01
  8.00000000E-01  1.50000000E+00  8.00000000E-01  8.00000000E-01  1.50000000E+00
  8.00000000E-01  8.00000000E-01  1.50000000E+00  8.00000000E-01  8.00000000E-01
  1.50000000E+00  8.00000000E-01  8.00000000E-01  1.50000000E+00  8.00000000E-01
  8.00000000E-01  1.50000000E+00  8.00000000E-01  8.00000000E-01  1.50000000E+00
  8.00000000E-01  8.00000000E-01  1.50000000E+00  8.00000000E-01  8.00000000E-01
  1.50000000E+00  8.00000000E-01  8.00000000E-01  1.50000000E+00  8.00000000E-01
  8.00000000E-01  1.50000000E+00  8.00000000E-01  8.00000000E-01  1.50000000E+00
  8.00000000E-01  8.00000000E-01  1.50000000E+00  8.00000000E-01  8.00000000E-01
  1.50000000E+00  8.00000000E-01  8.00000000E-01  1.50000000E+00  8.00000000E-01
  8.00000000E-01  1.50000000E+00  8.00000000E-01  8.00000000E-01  1.50000000E+00
  8.00000000E-01  8.00000000E-01  1.50000000E+00  8.00000000E-01  8.00000000E-01
  1.50000000E+00  8.00000000E-01  8.00000000E-01  1.50000000E+00  8.00000000E-01
  8.00000000E-01  1.50000000E+00  8.00000000E-01  8.00000000E-01  1.50000000E+00
  8.00000000E-01  8.00000000E-01  1.50000000E+00  8.00000000E-01  8.00000000E-01
  1.50000000E+00  8.00000000E-01  8.00000000E-01  1.50000000E+00  8.00000000E-01
  8.00000000E-01  1.50000000E+00  8.00000000E-01  8.00000000E-01  1.50000000E+00
  8.00000000E-01  8.00000000E-01  1.50000000E+00  8.00000000E-01  8.00000000E-01
  1.50000000E+00  8.00000000E-01  8.00000000E-01  1.50000000E+00  8.00000000E-01
  8.00000000E-01  1.50000000E+00  8.00000000E-01  8.00000000E-01  1.50000000E+00
  8.00000000E-01  8.00000000E-01  1.50000000E+00  8.00000000E-01  8.00000000E-01
  1.50000000E+00  8.00000000E-01  8.00000000E-01  1.50000000E+00  8.00000000E-01
  8.00000000E-01  1.50000000E+00  8.00000000E-01  8.00000000E-01  1.50000000E+00
  8.00000000E-01  8.00000000E-01  1.50000000E+00  8.00000000E-01  8.00000000E-01
  1.50000000E+00  8.00000000E-01  8.00000000E-01  1.50000000E+00  8.00000000E-01
  8.00000000E-01  1.50000000E+00  8.00000000E-01  8.00000000E-01  1.50000000E+00
  8.00000000E-01  8.00000000E-01  1.50000000E+00  8.00000000E-01  8.00000000E-01
  1.50000000E+00  8.00000000E-01  8.00000000E-01  1.50000000E+00  8.00000000E-01
  8.00000000E-01  1.50000000E+00  8.00000000E-01  8.00000000E-01  1.50000000E+00
  8.00000000E-01  8.00000000E-01  1.50000000E+00  8.00000000E-01  8.00000000E-01
  1.50000000E+00  8.00000000E-01  8.00000000E-01  1.50000000E+00  8.00000000E-01
  8.00000000E-01  1.50000000E+00  8.00000000E-01  8.00000000E-01  1.50000000E+00
  8.00000000E-01  8.00000000E-01  1.50000000E+00  8.00000000E-01  8.00000000E-01
  1.50000000E+00  8.00000000E-01  8.00000000E-01  1.50000000E+00  8.00000000E-01
  8.00000000E-01  1.50000000E+00  8.00000000E-01  8.00000000E-01  1.50000000E+00
  8.00000000E-01  8.00000000E-01  1.50000000E+00  8.00000000E-01  8.00000000E-01
  1.50000000E+00  8.00000000E-01  8.00000000E-01  1.50000000E+00  8.00000000E-01
  8.00000000E-01  1.50000000E+00  8.00000000E-01  8.00000000E-01  1.50000000E+00
  8.00000000E-01  8.00000000E-01  1.50000000E+00  8.00000000E-01  8.00000000E-01
  1.50000000E+00  8.00000000E-01  8.00000000E-01  1.50000000E+00  8.00000000E-01
  8.00000000E-01  1.50000000E+00  8.00000000E-01  8.00000000E-01  1.50000000E+00
  8.00000000E-01  8.00000000E-01  1.50000000E+00  8.00000000E-01  8.00000000E-01
  1.50000000E+00  8.00000000E-01  8.00000000E-01  1.50000000E+00  8.00000000E-01
  8.00000000E-01  1.50000000E+00  8.00000000E-01  8.00000000E-01  1.50000000E+00
  8.00000000E-01  8.00000000E-01  1.50000000E+00  8.00000000E-01  8.00000000E-01
  1.50000000E+00  8.00000000E-01  8.00000000E-01  1.50000000E+00  8.00000000E-01
  8.00000000E-01  1.50000000E+00  8.00000000E-01  8.00000000E-01  1.50000000E+00
  8.00000000E-01  8.00000000E-01  1.50000000E+00  8.00000000E-01  8.00000000E-01
  1.50000000E+00  8.00000000E-01  8.00000000E-01  1.50000000E+00  8.00000000E-01
  8.00000000E-01  1.50000000E+00  8.00000000E-01  8.00000000E-01  1.50000000E+00
  8.00000000E-01  8.00000000E-01  1.50000000E+00  8.00000000E-01  8.00000000E-01
  1.50000000E+00  8.00000000E-01  8.00000000E-01  1.50000000E+00  8.00000000E-01
  8.00000000E-01  1.50000000E+00  8.00000000E-01  8.00000000E-01  1.50000000E+00
  8.00000000E-01  8.00000000E-01  1.50000000E+00  8.00000000E-01  8.00000000E-01
  1.50000000E+00  8.00000000E-01  8.00000000E-01  1.50000000E+00  8.00000000E-01
  8.00000000E-01  1.50000000E+00  8.00000000E-01  8.00000000E-01  1.50000000E+00
  8.00000000E-01  8.00000000E-01  1.50000000E+00  8.00000000E-01  8.00000000E-01
  1.50000000E+00  8.00000000E-01  8.00000000E-01  1.50000000E+00  8.00000000E-01
  8.00000000E-01  1.50000000E+00  8.00000000E-01  8.00000000E-01  1.50000000E+00
  8.00000000E-01  8.00000000E-01  1.50000000E+00  8.00000000E-01  8.00000000E-01
  1.50000000E+00  8.00000000E-01  8.00000000E-01  1.50000000E+00  8.00000000E-01
  8.00000000E-01  1.50000000E+00  8.00000000E-01  8.00000000E-01  1.50000000E+00
  8.00000000E-01  8.00000000E-01  1.50000000E+00  8.00000000E-01  8.00000000E-01
  1.50000000E+00  8.00000000E-01  8.00000000E-01  1.50000000E+00  8.00000000E-01
  8.00000000E-01  1.50000000E+00  8.00000000E-01  8.00000000E-01  1.50000000E+00
  8.00000000E-01  8.00000000E-01  1.50000000E+00  8.00000000E-01  8.00000000E-01
  1.50000000E+00  8.00000000E-01  8.00000000E-01  1.50000000E+00  8.00000000E-01
  8.00000000E-01  1.50000000E+00  8.00000000E-01  8.00000000E-01  1.50000000E+00
  8.00000000E-01  8.00000000E-01  1.50000000E+00  8.00000000E-01  8.00000000E-01
  1.50000000E+00  8.00000000E-01  8.00000000E-01  1.50000000E+00  8.00000000E-01
  8.00000000E-01  1.50000000E+00  8.00000000E-01  8.00000000E-01  1.50000000E+00
  8.00000000E-01  8.00000000E-01  1.50000000E+00  8.00000000E-01  8.00000000E-01
  1.50000000E+00  8.00000000E-01  8.00000000E-01  1.50000000E+00  8.00000000E-01
  8.00000000E-01  1.50000000E+00  8.00000000E-01  8.00000000E-01  1.50000000E+00
  8.00000000E-01  8.00000000E-01  1.50000000E+00  8.00000000E-01  8.00000000E-01
  1.50000000E+00  8.00000000E-01  8.00000000E-01  1.50000000E+00  8.00000000E-01
  8.00000000E-01  1.50000000E+00  8.00000000E-01  8.00000000E-01  1.50000000E+00
  8.00000000E-01  8.00000000E-01  1.50000000E+00  8.00000000E-01  8.00000000E-01
  1.50000000E+00  8.00000000E-01  8.00000000E-01  1.50000000E+00  8.00000000E-01
  8.00000000E-01  1.50000000E+00  8.00000000E-01  8.00000000E-01  1.50000000E+00
  8.00000000E-01  8.00000000E-01  1.50000000E+00  8.00000000E-01  8.00000000E-01
  1.50000000E+00  8.00000000E-01  8.00000000E-01  1.50000000E+00  8.00000000E-01
  8.00000000E-01  1.50000000E+00  8.00000000E-01  8.00000000E-01  1.50000000E+00
  8.00000000E-01  8.00000000E-01  1.50000000E+00  8.00000000E-01  8.00000000E-01
  1.50000000E+00  8.00000000E-01  8.00000000E-01  1.50000000E+00  8.00000000E-01
  8.00000000E-01  1.50000000E+00  8.00000000E-01  8.00000000E-01  1.50000000E+00
  8.00000000E-01  8.00000000E-01  1.50000000E+00  8.00000000E-01  8.00000000E-01
  1.50000000E+00  8.00000000E-01  8.00000000E-01  1.50000000E+00  8.00000000E-01
  8.00000000E-01  1.50000000E+00  8.00000000E-01  8.00000000E-01  1.50000000E+00
  8.00000000E-01  8.00000000E-01  1.50000000E+00  8.00000000E-01  8.00000000E-01
  1.50000000E+00  8.00000000E-01  8.00000000E-01  1.50000000E+00  8.00000000E-01
  8.00000000E-01  1.50000000E+00  8.00000000E-01  8.00000000E-01  1.50000000E+00
  8.00000000E-01  8.00000000E-01  1.50000000E+00  8.00000000E-01  8.00000000E-01
  1.50000000E+00  8.00000000E-01  8.00000000E-01  1.50000000E+00  8.00000000E-01
  8.00000000E-01  1.50000000E+00  8.00000000E-01  8.00000000E-01  1.50000000E+00
  8.00000000E-01  8.00000000E-01  1.50000000E+00  8.00000000E-01  8.00000000E-01
  1.50000000E+00  8.00000000E-01  8.00000000E-01  1.50000000E+00  8.00000000E-01
  8.00000000E-01  1.50000000E+00  8.00000000E-01  8.00000000E-01  1.50000000E+00
  8.00000000E-01  8.00000000E-01  1.50000000E+00  8.00000000E-01  8.00000000E-01
  1.50000000E+00  8.00000000E-01  8.00000000E-01  1.50000000E+00  8.00000000E-01
  8.00000000E-01  1.50000000E+00  8.00000000E-01  8.00000000E-01  1.50000000E+00
  8.00000000E-01  8.00000000E-01  1.50000000E+00  8.00000000E-01  8.00000000E-01
  1.50000000E+00  8.00000000E-01  8.00000000E-01  1.50000000E+00  8.00000000E-01
  8.00000000E-01  1.50000000E+00  8.00000000E-01  8.00000000E-01  1.50000000E+00
  8.00000000E-01  8.00000000E-01  1.50000000E+00  8.00000000E-01  8.00000000E-01
  1.50000000E+00  8.00000000E-01  8.00000000E-01  1.50000000E+00  8.00000000E-01
  8.00000000E-01  1.50000000E+00  8.00000000E-01  8.00000000E-01  1.50000000E+00
  8.00000000E-01  8.00000000E-01  1.50000000E+00  8.00000000E-01  8.00000000E-01
  1.50000000E+00  8.00000000E-01  8.00000000E-01  1.50000000E+00  8.00000000E-01
  8.00000000E-01  1.50000000E+00  8.00000000E-01  8.00000000E-01  1.50000000E+00
  8.00000000E-01  8.00000000E-01  1.50000000E+00  8.00000000E-01  8.00000000E-01
  1.50000000E+00  8.00000000E-01  8.00000000E-01  1.50000000E+00  8.00000000E-01
  8.00000000E-01  1.50000000E+00  8.00000000E-01  8.00000000E-01  1.50000000E+00
  8.00000000E-01  8.00000000E-01  1.50000000E+00  8.00000000E-01  8.00000000E-01
  1.50000000E+00  8.00000000E-01  8.00000000E-01  1.50000000E+00  8.00000000E-01
  8.00000000E-01  1.50000000E+00  8.00000000E-01  8.00000000E-01  1.50000000E+00
  8.00000000E-01  8.00000000E-01  1.50000000E+00  8.00000000E-01  8.00000000E-01
  1.50000000E+00  8.00000000E-01  8.00000000E-01  1.50000000E+00  8.00000000E-01
  8.00000000E-01  1.50000000E+00  8.00000000E-01  8.00000000E-01  1.50000000E+00
  8.00000000E-01  8.00000000E-01  1.50000000E+00  8.00000000E-01  8.00000000E-01
  1.50000000E+00  8.00000000E-01  8.00000000E-01  1.50000000E+00  8.00000000E-01
  8.00000000E-01  1.50000000E+00  8.00000000E-01  8.00000000E-01  1.50000000E+00
  8.00000000E-01  8.00000000E-01  1.50000000E+00  8.00000000E-01  8.00000000E-01
  1.50000000E+00  8.00000000E-01  8.00000000E-01  1.50000000E+00  8.00000000E-01
  8.00000000E-01  1.50000000E+00  8.00000000E-01  8.00000000E-01  1.50000000E+00
  8.00000000E-01  8.00000000E-01  1.50000000E+00  8.00000000E-01  8.00000000E-01
  1.50000000E+00  8.00000000E-01  8.00000000E-01  1.50000000E+00  8.00000000E-01
  8.00000000E-01  1.50000000E+00  8.00000000E-01  8.00000000E-01  1.50000000E+00
  8.00000000E-01  8.00000000E-01  1.50000000E+00  8.00000000E-01  8.00000000E-01
  1.50000000E+00  8.00000000E-01  8.00000000E-01  1.50000000E+00  8.00000000E-01
  8.00000000E-01  1.50000000E+00  8.00000000E-01  8.00000000E-01  1.50000000E+00
  8.00000000E-01  8.00000000E-01  1.50000000E+00  8.00000000E-01  8.00000000E-01
  1.50000000E+00  8.00000000E-01  8.00000000E-01  1.50000000E+00  8.00000000E-01
  8.00000000E-01  1.50000000E+00  8.00000000E-01  8.00000000E-01  1.50000000E+00
  8.00000000E-01  8.00000000E-01  1.50000000E+00  8.00000000E-01  8.00000000E-01
  1.50000000E+00  8.00000000E-01  8.00000000E-01  1.50000000E+00  8.00000000E-01
  8.00000000E-01  1.50000000E+00  8.00000000E-01  8.00000000E-01  1.50000000E+00
  8.00000000E-01  8.00000000E-01  1.50000000E+00  8.00000000E-01  8.00000000E-01
  1.50000000E+00  8.00000000E-01  8.00000000E-01  1.50000000E+00  8.00000000E-01
  8.00000000E-01  1.50000000E+00  8.00000000E-01  8.00000000E-01  1.50000000E+00
  8.00000000E-01  8.00000000E-01  1.50000000E+00  8.00000000E-01  8.00000000E-01
  1.50000000E+00  8.00000000E-01  8.00000000E-01  1.50000000E+00  8.00000000E-01
  8.00000000E-01  1.50000000E+00  8.00000000E-01  8.00000000E-01  1.50000000E+00
  8.00000000E-01  8.00000000E-01  1.50000000E+00  8.00000000E-01  8.00000000E-01
  1.50000000E+00  8.00000000E-01  8.00000000E-01  1.50000000E+00  8.00000000E-01
  8.00000000E-01  1.50000000E+00  8.00000000E-01  8.00000000E-01  1.50000000E+00
  8.00000000E-01  8.00000000E-01  1.50000000E+00  8.00000000E-01  8.00000000E-01
  1.50000000E+00  8.00000000E-01  8.00000000E-01  1.50000000E+00  8.00000000E-01
  8.00000000E-01  1.50000000E+00  8.00000000E-01  8.00000000E-01  1.50000000E+00
  8.00000000E-01  8.00000000E-01  1.50000000E+00  8.00000000E-01  8.00000000E-01
  1.50000000E+00  8.00000000E-01  8.00000000E-01  1.50000000E+00  8.00000000E-01
  8.00000000E-01  1.50000000E+00  8.00000000E-01  8.00000000E-01  1.50000000E+00
  8.00000000E-01  8.00000000E-01  1.50000000E+00  8.00000000E-01  8.00000000E-01
  1.50000000E+00  8.00000000E-01  8.00000000E-01  1.50000000E+00  8.00000000E-01
  8.00000000E-01  1.50000000E+00  8.00000000E-01  8.00000000E-01  1.50000000E+00
  8.00000000E-01  8.00000000E-01  1.50000000E+00  8.00000000E-01  8.00000000E-01
  1.50000000E+00  8.00000000E-01  8.00000000E-01  1.50000000E+00  8.00000000E-01
  8.00000000E-01  1.50000000E+00  8.00000000E-01  8.00000000E-01  1.50000000E+00
  8.00000000E-01  8.00000000E-01  1.50000000E+00  8.00000000E-01  8.00000000E-01
  1.50000000E+00  8.00000000E-01  8.00000000E-01  1.50000000E+00  8.00000000E-01
  8.00000000E-01  1.50000000E+00  8.00000000E-01  8.00000000E-01  1.50000000E+00
  8.00000000E-01  8.00000000E-01  1.50000000E+00  8.00000000E-01  8.00000000E-01
  1.50000000E+00  8.00000000E-01  8.00000000E-01  1.50000000E+00  8.00000000E-01
  8.00000000E-01  1.50000000E+00  8.00000000E-01  8.00000000E-01  1.50000000E+00
  8.00000000E-01  8.00000000E-01  1.50000000E+00  8.00000000E-01  8.00000000E-01
  1.50000000E+00  8.00000000E-01  8.00000000E-01  1.50000000E+00  8.00000000E-01
  8.00000000E-01  1.50000000E+00  8.00000000E-01  8.00000000E-01  1.50000000E+00
  8.00000000E-01  8.00000000E-01  1.50000000E+00  8.00000000E-01  8.00000000E-01
  1.50000000E+00  8.00000000E-01  8.00000000E-01  1.50000000E+00  8.00000000E-01
  8.00000000E-01  1.50000000E+00  8.00000000E-01  8.00000000E-01  1.50000000E+00
  8.00000000E-01  8.00000000E-01  1.50000000E+00  8.00000000E-01  8.00000000E-01
  1.50000000E+00  8.00000000E-01  8.00000000E-01  1.50000000E+00  8.00000000E-01
  8.00000000E-01  1.50000000E+00  8.00000000E-01  8.00000000E-01  1.50000000E+00
  8.00000000E-01  8.00000000E-01  1.50000000E+00  8.00000000E-01  8.00000000E-01
  1.50000000E+00  8.00000000E-01  8.00000000E-01  1.50000000E+00  8.00000000E-01
  8.00000000E-01  1.50000000E+00  8.00000000E-01  8.00000000E-01  1.50000000E+00
  8.00000000E-01  8.00000000E-01  1.50000000E+00  8.00000000E-01  8.00000000E-01
  1.50000000E+00  8.00000000E-01  8.00000000E-01  1.50000000E+00  8.00000000E-01
  8.00000000E-01  1.50000000E+00  8.00000000E-01  8.00000000E-01  1.50000000E+00
  8.00000000E-01  8.00000000E-01  1.50000000E+00  8.00000000E-01  8.00000000E-01
  1.50000000E+00  8.00000000E-01  8.00000000E-01  1.50000000E+00  8.00000000E-01
  8.00000000E-01  1.50000000E+00  8.00000000E-01  8.00000000E-01  1.50000000E+00
  8.00000000E-01  8.00000000E-01  1.50000000E+00  8.00000000E-01  8.00000000E-01
  1.50000000E+00  8.00000000E-01  8.00000000E-01  1.50000000E+00  8.00000000E-01
  8.00000000E-01  1.50000000E+00  8.00000000E-01  8.00000000E-01  1.50000000E+00
  8.00000000E-01  8.00000000E-01  1.50000000E+00  8.00000000E-01  8.00000000E-01
  1.50000000E+00  8.00000000E-01  8.00000000E-01  1.50000000E+00  8.00000000E-01
  8.00000000E-01  1.50000000E+00  8.00000000E-01  8.00000000E-01  1.50000000E+00
  8.00000000E-01  8.00000000E-01  1.50000000E+00  8.00000000E-01  8.00000000E-01
  1.50000000E+00  8.00000000E-01  8.00000000E-01  1.50000000E+00  8.00000000E-01
  8.00000000E-01  1.50000000E+00  8.00000000E-01  8.00000000E-01  1.50000000E+00
  8.00000000E-01  8.00000000E-01  1.50000000E+00  8.00000000E-01  8.00000000E-01
  1.50000000E+00  8.00000000E-01  8.00000000E-01  1.50000000E+00  8.00000000E-01
  8.00000000E-01  1.50000000E+00  8.00000000E-01  8.00000000E-01  1.50000000E+00
  8.00000000E-01  8.00000000E-01  1.50000000E+00  8.00000000E-01  8.00000000E-01
  1.50000000E+00  8.00000000E-01  8.00000000E-01  1.50000000E+00  8.00000000E-01
  8.00000000E-01  1.50000000E+00  8.00000000E-01  8.00000000E-01  1.50000000E+00
  8.00000000E-01  8.00000000E-01  1.50000000E+00  8.00000000E-01  8.00000000E-01
  1.50000000E+00  8.00000000E-01  8.00000000E-01  1.50000000E+00  8.00000000E-01
  8.00000000E-01  1.50000000E+00  8.00000000E-01  8.00000000E-01  1.50000000E+00
  8.00000000E-01  8.00000000E-01  1.50000000E+00  8.00000000E-01  8.00000000E-01
  1.50000000E+00  8.00000000E-01  8.00000000E-01  1.50000000E+00  8.00000000E-01
  8.00000000E-01  1.50000000E+00  8.00000000E-01  8.00000000E-01  1.50000000E+00
  8.00000000E-01  8.00000000E-01  1.50000000E+00  8.00000000E-01  8.00000000E-01
  1.50000000E+00  8.00000000E-01  8.00000000E-01  1.50000000E+00  8.00000000E-01
  8.00000000E-01  1.50000000E+00  8.00000000E-01  8.00000000E-01  1.50000000E+00
  8.00000000E-01  8.00000000E-01  1.50000000E+00  8.00000000E-01  8.00000000E-01
  1.50000000E+00  8.00000000E-01  8.00000000E-01  1.50000000E+00  8.00000000E-01
  8.00000000E-01  1.50000000E+00  8.00000000E-01  8.00000000E-01  1.50000000E+00
  8.00000000E-01  8.00000000E-01  1.50000000E+00  8.00000000E-01  8.00000000E-01
  1.50000000E+00  8.00000000E-01  8.00000000E-01  1.50000000E+00  8.00000000E-01
  8.00000000E-01  1.50000000E+00  8.00000000E-01  8.00000000E-01  1.50000000E+00
  8.00000000E-01  8.00000000E-01  1.50000000E+00  8.00000000E-01  8.00000000E-01
  1.50000000E+00  8.00000000E-01  8.00000000E-01  1.50000000E+00  8.00000000E-01
  8.00000000E-01  1.50000000E+00  8.00000000E-01  8.00000000E-01  1.50000000E+00
  8.00000000E-01  8.00000000E-01  1.50000000E+00  8.00000000E-01  8.00000000E-01
  1.50000000E+00  8.00000000E-01  8.00000000E-01  1.50000000E+00  8.00000000E-01
  8.00000000E-01  1.50000000E+00  8.00000000E-01  8.00000000E-01  1.50000000E+00
  8.00000000E-01  8.00000000E-01  1.50000000E+00  8.00000000E-01  8.00000000E-01
  1.50000000E+00  8.00000000E-01  8.00000000E-01  1.50000000E+00  8.00000000E-01
  8.00000000E-01  1.50000000E+00  8.00000000E-01  8.00000000E-01  1.50000000E+00
  8.00000000E-01  8.00000000E-01  1.50000000E+00  8.00000000E-01  8.00000000E-01
  1.50000000E+00  8.00000000E-01  8.00000000E-01  1.50000000E+00  8.00000000E-01
  8.00000000E-01  1.50000000E+00  8.00000000E-01  8.00000000E-01  1.50000000E+00
  8.00000000E-01  8.00000000E-01  1.50000000E+00  8.00000000E-01  8.00000000E-01
  1.50000000E+00  8.00000000E-01  8.00000000E-01  1.50000000E+00  8.00000000E-01
  8.00000000E-01  1.50000000E+00  8.00000000E-01  8.00000000E-01  1.50000000E+00
  8.00000000E-01  8.00000000E-01  1.50000000E+00  8.00000000E-01  8.00000000E-01
  1.50000000E+00  8.00000000E-01  8.00000000E-01  1.50000000E+00  8.00000000E-01
  8.00000000E-01  1.50000000E+00  8.00000000E-01  8.00000000E-01  1.50000000E+00
  8.00000000E-01  8.00000000E-01  1.50000000E+00  8.00000000E-01  8.00000000E-01
  1.50000000E+00  8.00000000E-01  8.00000000E-01  1.50000000E+00  8.00000000E-01
  8.00000000E-01  1.50000000E+00  8.00000000E-01  8.00000000E-01  1.50000000E+00
  8.00000000E-01  8.00000000E-01  1.50000000E+00  8.00000000E-01  8.00000000E-01
  1.50000000E+00  8.00000000E-01  8.00000000E-01  1.50000000E+00  8.00000000E-01
  8.00000000E-01  1.50000000E+00  8.00000000E-01  8.00000000E-01  1.50000000E+00
  8.00000000E-01  8.00000000E-01  1.50000000E+00  8.00000000E-01  8.00000000E-01
  1.50000000E+00  8.00000000E-01  8.00000000E-01  1.50000000E+00  8.00000000E-01
  8.00000000E-01  1.50000000E+00  8.00000000E-01  8.00000000E-01  1.50000000E+00
  8.00000000E-01  8.00000000E-01  1.50000000E+00  8.00000000E-01  8.00000000E-01
  1.50000000E+00  8.00000000E-01  8.00000000E-01  1.50000000E+00  8.00000000E-01
  8.00000000E-01  1.50000000E+00  8.00000000E-01  8.00000000E-01  1.50000000E+00
  8.00000000E-01  8.00000000E-01  1.50000000E+00  8.00000000E-01  8.00000000E-01
  1.50000000E+00  8.00000000E-01  8.00000000E-01  1.50000000E+00  8.00000000E-01
  8.00000000E-01  1.50000000E+00  8.00000000E-01  8.00000000E-01  1.50000000E+00
  8.00000000E-01  8.00000000E-01  1.50000000E+00  8.00000000E-01  8.00000000E-01
  1.50000000E+00  8.00000000E-01  8.00000000E-01  1.50000000E+00  8.00000000E-01
  8.00000000E-01  1.50000000E+00  8.00000000E-01  8.00000000E-01  1.50000000E+00
  8.00000000E-01  8.00000000E-01  1.50000000E+00  8.00000000E-01  8.00000000E-01
  1.50000000E+00  8.00000000E-01  8.00000000E-01  1.50000000E+00  8.00000000E-01
  8.00000000E-01  1.50000000E+00  8.00000000E-01  8.00000000E-01  1.50000000E+00
  8.00000000E-01  8.00000000E-01  1.50000000E+00  8.00000000E-01  8.00000000E-01
  1.50000000E+00  8.00000000E-01  8.00000000E-01  1.50000000E+00  8.00000000E-01
  8.00000000E-01  1.50000000E+00  8.00000000E-01  8.00000000E-01  1.50000000E+00
  8.00000000E-01  8.00000000E-01  1.50000000E+00  8.00000000E-01  8.00000000E-01
  1.50000000E+00  8.00000000E-01  8.00000000E-01  1.50000000E+00  8.00000000E-01
  8.00000000E-01  1.50000000E+00  8.00000000E-01  8.00000000E-01  1.50000000E+00
  8.00000000E-01  8.00000000E-01  1.50000000E+00  8.00000000E-01  8.00000000E-01
  1.50000000E+00  8.00000000E-01  8.00000000E-01  1.50000000E+00  8.00000000E-01
  8.00000000E-01  1.50000000E+00  8.00000000E-01  8.00000000E-01  1.50000000E+00
  8.00000000E-01  8.00000000E-01  1.50000000E+00  8.00000000E-01  8.00000000E-01
  1.50000000E+00  8.00000000E-01  8.00000000E-01  1.50000000E+00  8.00000000E-01
  8.00000000E-01  1.50000000E+00  8.00000000E-01  8.00000000E-01  1.50000000E+00
  8.00000000E-01  8.00000000E-01  1.50000000E+00  8.00000000E-01  8.00000000E-01
  1.50000000E+00  8.00000000E-01  8.00000000E-01  1.50000000E+00  8.00000000E-01
  8.00000000E-01  1.50000000E+00  8.00000000E-01  8.00000000E-01  1.50000000E+00
  8.00000000E-01  8.00000000E-01  1.50000000E+00  8.00000000E-01  8.00000000E-01
  1.50000000E+00  8.00000000E-01  8.00000000E-01  1.50000000E+00  8.00000000E-01
  8.00000000E-01  1.50000000E+00  8.00000000E-01  8.00000000E-01  1.50000000E+00
  8.00000000E-01  8.00000000E-01  1.50000000E+00  8.00000000E-01  8.00000000E-01
  1.50000000E+00  8.00000000E-01  8.00000000E-01  1.50000000E+00  8.00000000E-01
  8.00000000E-01  1.50000000E+00  8.00000000E-01  8.00000000E-01  1.50000000E+00
  8.00000000E-01  8.00000000E-01  1.50000000E+00  8.00000000E-01  8.00000000E-01
  1.50000000E+00  8.00000000E-01  8.00000000E-01  1.50000000E+00  8.00000000E-01
  8.00000000E-01  1.50000000E+00  8.00000000E-01  8.00000000E-01  1.50000000E+00
  8.00000000E-01  8.00000000E-01  1.50000000E+00  8.00000000E-01  8.00000000E-01
  1.50000000E+00  8.00000000E-01  8.00000000E-01  1.50000000E+00  8.00000000E-01
  8.00000000E-01  1.50000000E+00  8.00000000E-01  8.00000000E-01  1.50000000E+00
  8.00000000E-01  8.00000000E-01  1.50000000E+00  8.00000000E-01  8.00000000E-01
  1.50000000E+00  8.00000000E-01  8.00000000E-01  1.50000000E+00  8.00000000E-01
  8.00000000E-01  1.50000000E+00  8.00000000E-01  8.00000000E-01  1.50000000E+00
  8.00000000E-01  8.00000000E-01  1.50000000E+00  8.00000000E-01  8.00000000E-01
  1.50000000E+00  8.00000000E-01  8.00000000E-01  1.50000000E+00  8.00000000E-01
  8.00000000E-01  1.50000000E+00  8.00000000E-01  8.00000000E-01  1.50000000E+00
  8.00000000E-01  8.00000000E-01  1.50000000E+00  8.00000000E-01  8.00000000E-01
  1.50000000E+00  8.00000000E-01  8.00000000E-01  1.50000000E+00  8.00000000E-01
  8.00000000E-01  1.50000000E+00  8.00000000E-01  8.00000000E-01  1.50000000E+00
  8.00000000E-01  8.00000000E-01  1.50000000E+00  8.00000000E-01  8.00000000E-01
  1.50000000E+00  8.00000000E-01  8.00000000E-01  1.50000000E+00  8.00000000E-01
  8.00000000E-01  1.50000000E+00  8.00000000E-01  8.00000000E-01  1.50000000E+00
  8.00000000E-01  8.00000000E-01  1.50000000E+00  8.00000000E-01  8.00000000E-01
  1.50000000E+00  8.00000000E-01  8.00000000E-01  1.50000000E+00  8.00000000E-01
  8.00000000E-01  1.50000000E+00  8.00000000E-01  8.00000000E-01  1.50000000E+00
  8.00000000E-01  8.00000000E-01  1.50000000E+00  8.00000000E-01  8.00000000E-01
  1.50000000E+00  8.00000000E-01  8.00000000E-01  1.50000000E+00  8.00000000E-01
  8.00000000E-01  1.50000000E+00  8.00000000E-01  8.00000000E-01  1.50000000E+00
  8.00000000E-01  8.00000000E-01  1.50000000E+00  8.00000000E-01  8.00000000E-01
  1.50000000E+00  8.00000000E-01  8.00000000E-01  1.50000000E+00  8.00000000E-01
  8.00000000E-01  1.50000000E+00  8.00000000E-01  8.00000000E-01  1.50000000E+00
  8.00000000E-01  8.00000000E-01  1.50000000E+00  8.00000000E-01  8.00000000E-01
  1.50000000E+00  8.00000000E-01  8.00000000E-01  1.50000000E+00  8.00000000E-01
  8.00000000E-01  1.50000000E+00  8.00000000E-01  8.00000000E-01  1.50000000E+00
  8.00000000E-01  8.00000000E-01  1.50000000E+00  8.00000000E-01  8.00000000E-01
  1.50000000E+00  8.00000000E-01  8.00000000E-01  1.50000000E+00  8.00000000E-01
  8.00000000E-01  1.50000000E+00  8.00000000E-01  8.00000000E-01  1.50000000E+00
  8.00000000E-01  8.00000000E-01  1.50000000E+00  8.00000000E-01  8.00000000E-01
  1.50000000E+00  8.00000000E-01  8.00000000E-01  1.50000000E+00  8.00000000E-01
  8.00000000E-01  1.50000000E+00  8.00000000E-01  8.00000000E-01  1.50000000E+00
  8.00000000E-01  8.00000000E-01  1.50000000E+00  8.00000000E-01  8.00000000E-01
  1.50000000E+00  8.00000000E-01  8.00000000E-01  1.50000000E+00  8.00000000E-01
  8.00000000E-01  1.50000000E+00  8.00000000E-01  8.00000000E-01  1.50000000E+00
  8.00000000E-01  8.00000000E-01  1.50000000E+00  8.00000000E-01  8.00000000E-01
  1.50000000E+00  8.00000000E-01  8.00000000E-01  1.50000000E+00  8.00000000E-01
  8.00000000E-01  1.50000000E+00  8.00000000E-01  8.00000000E-01  1.50000000E+00
  8.00000000E-01  8.00000000E-01  1.50000000E+00  8.00000000E-01  8.00000000E-01
  1.50000000E+00  8.00000000E-01  8.00000000E-01  1.50000000E+00  8.00000000E-01
  8.00000000E-01  1.50000000E+00  8.00000000E-01  8.00000000E-01  1.50000000E+00
  8.00000000E-01  8.00000000E-01  1.50000000E+00  8.00000000E-01  8.00000000E-01
  1.50000000E+00  8.00000000E-01  8.00000000E-01  1.50000000E+00  8.00000000E-01
  8.00000000E-01  1.50000000E+00  8.00000000E-01  8.00000000E-01  1.50000000E+00
  8.00000000E-01  8.00000000E-01  1.50000000E+00  8.00000000E-01  8.00000000E-01
  1.50000000E+00  8.00000000E-01  8.00000000E-01  1.50000000E+00  8.00000000E-01
  8.00000000E-01  1.50000000E+00  8.00000000E-01  8.00000000E-01  1.50000000E+00
  8.00000000E-01  8.00000000E-01  1.50000000E+00  8.00000000E-01  8.00000000E-01
  1.50000000E+00  8.00000000E-01  8.00000000E-01  1.50000000E+00  8.00000000E-01
  8.00000000E-01  1.50000000E+00  8.00000000E-01  8.00000000E-01  1.50000000E+00
  8.00000000E-01  8.00000000E-01  1.50000000E+00  8.00000000E-01  8.00000000E-01
  1.50000000E+00  8.00000000E-01  8.00000000E-01  1.50000000E+00  8.00000000E-01
  8.00000000E-01  1.50000000E+00  8.00000000E-01  8.00000000E-01  1.50000000E+00
  8.00000000E-01  8.00000000E-01  1.50000000E+00  8.00000000E-01  8.00000000E-01
  1.50000000E+00  8.00000000E-01  8.00000000E-01  1.50000000E+00  8.00000000E-01
  8.00000000E-01  1.50000000E+00  8.00000000E-01  8.00000000E-01  1.50000000E+00
  8.00000000E-01  8.00000000E-01  1.50000000E+00  8.00000000E-01  8.00000000E-01
  1.50000000E+00  8.00000000E-01  8.00000000E-01  1.50000000E+00  8.00000000E-01
  8.00000000E-01  1.50000000E+00  8.00000000E-01  8.00000000E-01  1.50000000E+00
  8.00000000E-01  8.00000000E-01  1.50000000E+00  8.00000000E-01  8.00000000E-01
  1.50000000E+00  8.00000000E-01  8.00000000E-01  1.50000000E+00  8.00000000E-01
  8.00000000E-01  1.50000000E+00  8.00000000E-01  8.00000000E-01  1.50000000E+00
  8.00000000E-01  8.00000000E-01  1.50000000E+00  8.00000000E-01  8.00000000E-01
  1.50000000E+00  8.00000000E-01  8.00000000E-01  1.50000000E+00  8.00000000E-01
  8.00000000E-01  1.50000000E+00  8.00000000E-01  8.00000000E-01  1.50000000E+00
  8.00000000E-01  8.00000000E-01  1.50000000E+00  8.00000000E-01  8.00000000E-01
  1.50000000E+00  8.00000000E-01  8.00000000E-01  1.50000000E+00  8.00000000E-01
  8.00000000E-01  1.50000000E+00  8.00000000E-01  8.00000000E-01  1.50000000E+00
  8.00000000E-01  8.00000000E-01  1.50000000E+00  8.00000000E-01  8.00000000E-01
  1.50000000E+00  8.00000000E-01  8.00000000E-01  1.50000000E+00  8.00000000E-01
  8.00000000E-01  1.50000000E+00  8.00000000E-01  8.00000000E-01  1.50000000E+00
  8.00000000E-01  8.00000000E-01  1.50000000E+00  8.00000000E-01  8.00000000E-01
  1.50000000E+00  8.00000000E-01  8.00000000E-01  1.50000000E+00  8.00000000E-01
  8.00000000E-01  1.50000000E+00  8.00000000E-01  8.00000000E-01  1.50000000E+00
  8.00000000E-01  8.00000000E-01  1.50000000E+00  8.00000000E-01  8.00000000E-01
  1.50000000E+00  8.00000000E-01  8.00000000E-01  1.50000000E+00  8.00000000E-01
  8.00000000E-01  1.50000000E+00  8.00000000E-01  8.00000000E-01  1.50000000E+00
  8.00000000E-01  8.00000000E-01  1.50000000E+00  8.00000000E-01  8.00000000E-01
  1.50000000E+00  8.00000000E-01  8.00000000E-01  1.50000000E+00  8.00000000E-01
  8.00000000E-01  1.50000000E+00  8.00000000E-01  8.00000000E-01  1.50000000E+00
  8.00000000E-01  8.00000000E-01  1.50000000E+00  8.00000000E-01  8.00000000E-01
  1.50000000E+00  8.00000000E-01  8.00000000E-01  1.50000000E+00  8.00000000E-01
  8.00000000E-01  1.50000000E+00  8.00000000E-01  8.00000000E-01  1.50000000E+00
  8.00000000E-01  8.00000000E-01  1.50000000E+00  8.00000000E-01  8.00000000E-01
  1.50000000E+00  8.00000000E-01  8.00000000E-01  1.50000000E+00  8.00000000E-01
  8.00000000E-01  1.50000000E+00  8.00000000E-01  8.00000000E-01  1.50000000E+00
  8.00000000E-01  8.00000000E-01  1.50000000E+00  8.00000000E-01  8.00000000E-01
  1.50000000E+00  8.00000000E-01  8.00000000E-01  1.50000000E+00  8.00000000E-01
  8.00000000E-01  1.50000000E+00  8.00000000E-01  8.00000000E-01  1.50000000E+00
  8.00000000E-01  8.00000000E-01  1.50000000E+00  8.00000000E-01  8.00000000E-01
  1.50000000E+00  8.00000000E-01  8.00000000E-01  1.50000000E+00  8.00000000E-01
  8.00000000E-01  1.50000000E+00  8.00000000E-01  8.00000000E-01  1.50000000E+00
  8.00000000E-01  8.00000000E-01  1.50000000E+00  8.00000000E-01  8.00000000E-01
  1.50000000E+00  8.00000000E-01  8.00000000E-01  1.50000000E+00  8.00000000E-01
  8.00000000E-01  1.50000000E+00  8.00000000E-01  8.00000000E-01  1.50000000E+00
  8.00000000E-01  8.00000000E-01  1.50000000E+00  8.00000000E-01  8.00000000E-01
  1.50000000E+00  8.00000000E-01  8.00000000E-01  1.50000000E+00  8.00000000E-01
  8.00000000E-01  1.50000000E+00  8.00000000E-01  8.00000000E-01  1.50000000E+00
  8.00000000E-01  8.00000000E-01  1.50000000E+00  8.00000000E-01  8.00000000E-01
  1.50000000E+00  8.00000000E-01  8.00000000E-01  1.50000000E+00  8.00000000E-01
  8.00000000E-01  1.50000000E+00  8.00000000E-01  8.00000000E-01  1.50000000E+00
  8.00000000E-01  8.00000000E-01  1.50000000E+00  8.00000000E-01  8.00000000E-01
  1.50000000E+00  8.00000000E-01  8.00000000E-01  1.50000000E+00  8.00000000E-01
  8.00000000E-01  1.50000000E+00  8.00000000E-01  8.00000000E-01  1.50000000E+00
  8.00000000E-01  8.00000000E-01  1.50000000E+00  8.00000000E-01  8.00000000E-01
  1.50000000E+00  8.00000000E-01  8.00000000E-01  1.50000000E+00  8.00000000E-01
  8.00000000E-01  1.50000000E+00  8.00000000E-01  8.00000000E-01  1.50000000E+00
  8.00000000E-01  8.00000000E-01  1.50000000E+00  8.00000000E-01  8.00000000E-01
  1.50000000E+00  8.00000000E-01  8.00000000E-01  1.50000000E+00  8.00000000E-01
  8.00000000E-01  1.50000000E+00  8.00000000E-01  8.00000000E-01  1.50000000E+00
  8.00000000E-01  8.00000000E-01  1.50000000E+00  8.00000000E-01  8.00000000E-01
  1.50000000E+00  8.00000000E-01  8.00000000E-01  1.50000000E+00  8.00000000E-01
  8.00000000E-01  1.50000000E+00  8.00000000E-01  8.00000000E-01  1.50000000E+00
  8.00000000E-01  8.00000000E-01  1.50000000E+00  8.00000000E-01  8.00000000E-01
  1.50000000E+00  8.00000000E-01  8.00000000E-01  1.50000000E+00  8.00000000E-01
  8.00000000E-01  1.50000000E+00  8.00000000E-01  8.00000000E-01  1.50000000E+00
  8.00000000E-01  8.00000000E-01  1.50000000E+00  8.00000000E-01  8.00000000E-01
  1.50000000E+00  8.00000000E-01  8.00000000E-01  1.50000000E+00  8.00000000E-01
  8.00000000E-01  1.50000000E+00  8.00000000E-01  8.00000000E-01  1.50000000E+00
  8.00000000E-01  8.00000000E-01  1.50000000E+00  8.00000000E-01  8.00000000E-01
  1.50000000E+00  8.00000000E-01  8.00000000E-01  1.50000000E+00  8.00000000E-01
  8.00000000E-01  1.50000000E+00  8.00000000E-01  8.00000000E-01  1.50000000E+00
  8.00000000E-01  8.00000000E-01  1.50000000E+00  8.00000000E-01  8.00000000E-01
  1.50000000E+00  8.00000000E-01  8.00000000E-01  1.50000000E+00  8.00000000E-01
  8.00000000E-01  1.50000000E+00  8.00000000E-01  8.00000000E-01  1.50000000E+00
  8.00000000E-01  8.00000000E-01  1.50000000E+00  8.00000000E-01  8.00000000E-01
  1.50000000E+00  8.00000000E-01  8.00000000E-01  1.50000000E+00  8.00000000E-01
  8.00000000E-01  1.50000000E+00  8.00000000E-01  8.00000000E-01  1.50000000E+00
  8.00000000E-01  8.00000000E-01  1.50000000E+00  8.00000000E-01  8.00000000E-01
  1.50000000E+00  8.00000000E-01  8.00000000E-01  1.50000000E+00  8.00000000E-01
  8.00000000E-01  1.50000000E+00  8.00000000E-01  8.00000000E-01  1.50000000E+00
  8.00000000E-01  8.00000000E-01  1.50000000E+00  8.00000000E-01  8.00000000E-01
  1.50000000E+00  8.00000000E-01  8.00000000E-01  1.50000000E+00  8.00000000E-01
  8.00000000E-01  1.50000000E+00  8.00000000E-01  8.00000000E-01  1.50000000E+00
  8.00000000E-01  8.00000000E-01  1.50000000E+00  8.00000000E-01  8.00000000E-01
  1.50000000E+00  8.00000000E-01  8.00000000E-01  1.50000000E+00  8.00000000E-01
  8.00000000E-01  1.50000000E+00  8.00000000E-01  8.00000000E-01  1.50000000E+00
  8.00000000E-01  8.00000000E-01  1.50000000E+00  8.00000000E-01  8.00000000E-01
  1.50000000E+00  8.00000000E-01  8.00000000E-01  1.50000000E+00  8.00000000E-01
  8.00000000E-01  1.50000000E+00  8.00000000E-01  8.00000000E-01  1.50000000E+00
  8.00000000E-01  8.00000000E-01  1.50000000E+00  8.00000000E-01  8.00000000E-01
  1.50000000E+00  8.00000000E-01  8.00000000E-01  1.50000000E+00  8.00000000E-01
  8.00000000E-01  1.50000000E+00  8.00000000E-01  8.00000000E-01  1.50000000E+00
  8.00000000E-01  8.00000000E-01  1.50000000E+00  8.00000000E-01  8.00000000E-01
  1.50000000E+00  8.00000000E-01  8.00000000E-01  1.50000000E+00  8.00000000E-01
  8.00000000E-01  1.50000000E+00  8.00000000E-01  8.00000000E-01  1.50000000E+00
  8.00000000E-01  8.00000000E-01  1.50000000E+00  8.00000000E-01  8.00000000E-01
  1.50000000E+00  8.00000000E-01  8.00000000E-01  1.50000000E+00  8.00000000E-01
  8.00000000E-01  1.50000000E+00  8.00000000E-01  8.00000000E-01  1.50000000E+00
  8.00000000E-01  8.00000000E-01  1.50000000E+00  8.00000000E-01  8.00000000E-01
  1.50000000E+00  8.00000000E-01  8.00000000E-01  1.50000000E+00  8.00000000E-01
  8.00000000E-01  1.50000000E+00  8.00000000E-01  8.00000000E-01  1.50000000E+00
  8.00000000E-01  8.00000000E-01  1.50000000E+00  8.00000000E-01  8.00000000E-01
  1.50000000E+00  8.00000000E-01  8.00000000E-01  1.50000000E+00  8.00000000E-01
  8.00000000E-01  1.50000000E+00  8.00000000E-01  8.00000000E-01  1.50000000E+00
  8.00000000E-01  8.00000000E-01  1.50000000E+00  8.00000000E-01  8.00000000E-01
  1.50000000E+00  8.00000000E-01  8.00000000E-01  1.50000000E+00  8.00000000E-01
  8.00000000E-01  1.50000000E+00  8.00000000E-01  8.00000000E-01  1.50000000E+00
  8.00000000E-01  8.00000000E-01  1.50000000E+00  8.00000000E-01  8.00000000E-01
  1.50000000E+00  8.00000000E-01  8.00000000E-01  1.50000000E+00  8.00000000E-01
  8.00000000E-01  1.50000000E+00  8.00000000E-01  8.00000000E-01  1.50000000E+00
  8.00000000E-01  8.00000000E-01  1.50000000E+00  8.00000000E-01  8.00000000E-01
  1.50000000E+00  8.00000000E-01  8.00000000E-01  1.50000000E+00  8.00000000E-01
  8.00000000E-01  1.50000000E+00  8.00000000E-01  8.00000000E-01  1.50000000E+00
  8.00000000E-01  8.00000000E-01  1.50000000E+00  8.00000000E-01  8.00000000E-01
  1.50000000E+00  8.00000000E-01  8.00000000E-01  1.50000000E+00  8.00000000E-01
  8.00000000E-01  1.50000000E+00  8.00000000E-01  8.00000000E-01  1.50000000E+00
  8.00000000E-01  8.00000000E-01  1.50000000E+00  8.00000000E-01  8.00000000E-01
  1.50000000E+00  8.00000000E-01  8.00000000E-01  1.50000000E+00  8.00000000E-01
  8.00000000E-01  1.50000000E+00  8.00000000E-01  8.00000000E-01  1.50000000E+00
  8.00000000E-01  8.00000000E-01  1.50000000E+00  8.00000000E-01  8.00000000E-01
  1.50000000E+00  8.00000000E-01  8.00000000E-01  1.50000000E+00  8.00000000E-01
  8.00000000E-01  1.50000000E+00  8.00000000E-01  8.00000000E-01  1.50000000E+00
  8.00000000E-01  8.00000000E-01  1.50000000E+00  8.00000000E-01  8.00000000E-01
  1.50000000E+00  8.00000000E-01  8.00000000E-01  1.50000000E+00  8.00000000E-01
  8.00000000E-01  1.50000000E+00  8.00000000E-01  8.00000000E-01  1.50000000E+00
  8.00000000E-01  8.00000000E-01  1.50000000E+00  8.00000000E-01  8.00000000E-01
  1.50000000E+00  8.00000000E-01  8.00000000E-01  1.50000000E+00  8.00000000E-01
  8.00000000E-01  1.50000000E+00  8.00000000E-01  8.00000000E-01  1.50000000E+00
  8.00000000E-01  8.00000000E-01  1.50000000E+00  8.00000000E-01  8.00000000E-01
  1.50000000E+00  8.00000000E-01  8.00000000E-01  1.50000000E+00  8.00000000E-01
  8.00000000E-01  1.50000000E+00  8.00000000E-01  8.00000000E-01  1.50000000E+00
  8.00000000E-01  8.00000000E-01  1.50000000E+00  8.00000000E-01  8.00000000E-01
  1.50000000E+00  8.00000000E-01  8.00000000E-01  1.50000000E+00  8.00000000E-01
  8.00000000E-01  1.50000000E+00  8.00000000E-01  8.00000000E-01  1.50000000E+00
  8.00000000E-01  8.00000000E-01  1.50000000E+00  8.00000000E-01  8.00000000E-01
  1.50000000E+00  8.00000000E-01  8.00000000E-01  1.50000000E+00  8.00000000E-01
  8.00000000E-01  1.50000000E+00  8.00000000E-01  8.00000000E-01  1.50000000E+00
  8.00000000E-01  8.00000000E-01  1.50000000E+00  8.00000000E-01  8.00000000E-01
  1.50000000E+00  8.00000000E-01  8.00000000E-01  1.50000000E+00  8.00000000E-01
  8.00000000E-01  1.50000000E+00  8.00000000E-01  8.00000000E-01  1.50000000E+00
  8.00000000E-01  8.00000000E-01  1.50000000E+00  8.00000000E-01  8.00000000E-01
  1.50000000E+00  8.00000000E-01  8.00000000E-01  1.50000000E+00  8.00000000E-01
  8.00000000E-01  1.50000000E+00  8.00000000E-01  8.00000000E-01  1.50000000E+00
  8.00000000E-01  8.00000000E-01  1.50000000E+00  8.00000000E-01  8.00000000E-01
  1.50000000E+00  8.00000000E-01  8.00000000E-01  1.50000000E+00  8.00000000E-01
  8.00000000E-01  1.50000000E+00  8.00000000E-01  8.00000000E-01  1.50000000E+00
  8.00000000E-01  8.00000000E-01  1.50000000E+00  8.00000000E-01  8.00000000E-01
  1.50000000E+00  8.00000000E-01  8.00000000E-01  1.50000000E+00  8.00000000E-01
  8.00000000E-01  1.50000000E+00  8.00000000E-01  8.00000000E-01  1.50000000E+00
  8.00000000E-01  8.00000000E-01  1.50000000E+00  8.00000000E-01  8.00000000E-01
  1.50000000E+00  8.00000000E-01  8.00000000E-01  1.50000000E+00  8.00000000E-01
  8.00000000E-01  1.50000000E+00  8.00000000E-01  8.00000000E-01  1.50000000E+00
  8.00000000E-01  8.00000000E-01  1.50000000E+00  8.00000000E-01  8.00000000E-01
  1.50000000E+00  8.00000000E-01  8.00000000E-01  1.50000000E+00  8.00000000E-01
  8.00000000E-01  1.50000000E+00  8.00000000E-01  8.00000000E-01  1.50000000E+00
  8.00000000E-01  8.00000000E-01  1.50000000E+00  8.00000000E-01  8.00000000E-01
  1.50000000E+00  8.00000000E-01  8.00000000E-01  1.50000000E+00  8.00000000E-01
  8.00000000E-01  1.50000000E+00  8.00000000E-01  8.00000000E-01  1.50000000E+00
  8.00000000E-01  8.00000000E-01  1.50000000E+00  8.00000000E-01  8.00000000E-01
  1.50000000E+00  8.00000000E-01  8.00000000E-01  1.50000000E+00  8.00000000E-01
  8.00000000E-01  1.50000000E+00  8.00000000E-01  8.00000000E-01  1.50000000E+00
  8.00000000E-01  8.00000000E-01  1.50000000E+00  8.00000000E-01  8.00000000E-01
  1.50000000E+00  8.00000000E-01  8.00000000E-01  1.50000000E+00  8.00000000E-01
  8.00000000E-01  1.50000000E+00  8.00000000E-01  8.00000000E-01  1.50000000E+00
  8.00000000E-01  8.00000000E-01  1.50000000E+00  8.00000000E-01  8.00000000E-01
  1.50000000E+00  8.00000000E-01  8.00000000E-01  1.50000000E+00  8.00000000E-01
  8.00000000E-01  1.50000000E+00  8.00000000E-01  8.00000000E-01  1.50000000E+00
  8.00000000E-01  8.00000000E-01  1.50000000E+00  8.00000000E-01  8.00000000E-01
  1.50000000E+00  8.00000000E-01  8.00000000E-01  1.50000000E+00  8.00000000E-01
  8.00000000E-01  1.50000000E+00  8.00000000E-01  8.00000000E-01  1.50000000E+00
  8.00000000E-01  8.00000000E-01  1.50000000E+00  8.00000000E-01  8.00000000E-01
  1.50000000E+00  8.00000000E-01  8.00000000E-01  1.50000000E+00  8.00000000E-01
  8.00000000E-01  1.50000000E+00  8.00000000E-01  8.00000000E-01  1.50000000E+00
  8.00000000E-01  8.00000000E-01  1.50000000E+00  8.00000000E-01  8.00000000E-01
  1.50000000E+00  8.00000000E-01  8.00000000E-01  1.50000000E+00  8.00000000E-01
  8.00000000E-01  1.50000000E+00  8.00000000E-01  8.00000000E-01  1.50000000E+00
  8.00000000E-01  8.00000000E-01  1.50000000E+00  8.00000000E-01  8.00000000E-01
  1.50000000E+00  8.00000000E-01  8.00000000E-01  1.50000000E+00  8.00000000E-01
  8.00000000E-01  1.50000000E+00  8.00000000E-01  8.00000000E-01  1.50000000E+00
  8.00000000E-01  8.00000000E-01  1.50000000E+00  8.00000000E-01  8.00000000E-01
  1.50000000E+00  8.00000000E-01  8.00000000E-01  1.50000000E+00  8.00000000E-01
  8.00000000E-01  1.50000000E+00  8.00000000E-01  8.00000000E-01  1.50000000E+00
  8.00000000E-01  8.00000000E-01  1.50000000E+00  8.00000000E-01  8.00000000E-01
  1.50000000E+00  8.00000000E-01  8.00000000E-01  1.50000000E+00  8.00000000E-01
  8.00000000E-01  1.50000000E+00  8.00000000E-01  8.00000000E-01  1.50000000E+00
  8.00000000E-01  8.00000000E-01  1.50000000E+00  8.00000000E-01  8.00000000E-01
  1.50000000E+00  8.00000000E-01  8.00000000E-01  1.50000000E+00  8.00000000E-01
  8.00000000E-01  1.50000000E+00  8.00000000E-01  8.00000000E-01  1.50000000E+00
  8.00000000E-01  8.00000000E-01  1.50000000E+00  8.00000000E-01  8.00000000E-01
  1.50000000E+00  8.00000000E-01  8.00000000E-01  1.50000000E+00  8.00000000E-01
  8.00000000E-01  1.50000000E+00  8.00000000E-01  8.00000000E-01  1.50000000E+00
  8.00000000E-01  8.00000000E-01  1.50000000E+00  8.00000000E-01  8.00000000E-01
  1.50000000E+00  8.00000000E-01  8.00000000E-01  1.50000000E+00  8.00000000E-01
  8.00000000E-01  1.50000000E+00  8.00000000E-01  8.00000000E-01  1.50000000E+00
  8.00000000E-01  8.00000000E-01  1.50000000E+00  8.00000000E-01  8.00000000E-01
  1.50000000E+00  8.00000000E-01  8.00000000E-01  1.50000000E+00  8.00000000E-01
  8.00000000E-01  1.50000000E+00  8.00000000E-01  8.00000000E-01  1.50000000E+00
  8.00000000E-01  8.00000000E-01  1.50000000E+00  8.00000000E-01  8.00000000E-01
  1.50000000E+00  8.00000000E-01  8.00000000E-01  1.50000000E+00  8.00000000E-01
  8.00000000E-01  1.50000000E+00  8.00000000E-01  8.00000000E-01  1.50000000E+00
  8.00000000E-01  8.00000000E-01  1.50000000E+00  8.00000000E-01  8.00000000E-01
  1.50000000E+00  8.00000000E-01  8.00000000E-01  1.50000000E+00  8.00000000E-01
  8.00000000E-01  1.50000000E+00  8.00000000E-01  8.00000000E-01  1.50000000E+00
  8.00000000E-01  8.00000000E-01  1.50000000E+00  8.00000000E-01  8.00000000E-01
  1.50000000E+00  8.00000000E-01  8.00000000E-01  1.50000000E+00  8.00000000E-01
  8.00000000E-01  1.50000000E+00  8.00000000E-01  8.00000000E-01  1.50000000E+00
  8.00000000E-01  8.00000000E-01  1.50000000E+00  8.00000000E-01  8.00000000E-01
  1.50000000E+00  8.00000000E-01  8.00000000E-01  1.50000000E+00  8.00000000E-01
  8.00000000E-01  1.50000000E+00  8.00000000E-01  8.00000000E-01  1.50000000E+00
  8.00000000E-01  8.00000000E-01  1.50000000E+00  8.00000000E-01  8.00000000E-01
  1.50000000E+00  8.00000000E-01  8.00000000E-01  1.50000000E+00  8.00000000E-01
  8.00000000E-01  1.50000000E+00  8.00000000E-01  8.00000000E-01  1.50000000E+00
  8.00000000E-01  8.00000000E-01  1.50000000E+00  8.00000000E-01  8.00000000E-01
  1.50000000E+00  8.00000000E-01  8.00000000E-01  1.50000000E+00  8.00000000E-01
  8.00000000E-01  1.50000000E+00  8.00000000E-01  8.00000000E-01  1.50000000E+00
  8.00000000E-01  8.00000000E-01  1.50000000E+00  8.00000000E-01  8.00000000E-01
  1.50000000E+00  8.00000000E-01  8.00000000E-01  1.50000000E+00  8.00000000E-01
  8.00000000E-01  1.50000000E+00  8.00000000E-01  8.00000000E-01  1.50000000E+00
  8.00000000E-01  8.00000000E-01  1.50000000E+00  8.00000000E-01  8.00000000E-01
  1.50000000E+00  8.00000000E-01  8.00000000E-01  1.50000000E+00  8.00000000E-01
  8.00000000E-01  1.50000000E+00  8.00000000E-01  8.00000000E-01  1.50000000E+00
  8.00000000E-01  8.00000000E-01  1.50000000E+00  8.00000000E-01  8.00000000E-01
  1.50000000E+00  8.00000000E-01  8.00000000E-01  1.50000000E+00  8.00000000E-01
  8.00000000E-01  1.50000000E+00  8.00000000E-01  8.00000000E-01  1.50000000E+00
  8.00000000E-01  8.00000000E-01  1.50000000E+00  8.00000000E-01  8.00000000E-01
  1.50000000E+00  8.00000000E-01  8.00000000E-01  1.50000000E+00  8.00000000E-01
  8.00000000E-01  1.50000000E+00  8.00000000E-01  8.00000000E-01  1.50000000E+00
  8.00000000E-01  8.00000000E-01  1.50000000E+00  8.00000000E-01  8.00000000E-01
  1.50000000E+00  8.00000000E-01  8.00000000E-01  1.50000000E+00  8.00000000E-01
  8.00000000E-01  1.50000000E+00  8.00000000E-01  8.00000000E-01  1.50000000E+00
  8.00000000E-01  8.00000000E-01  1.50000000E+00  8.00000000E-01  8.00000000E-01
  1.50000000E+00  8.00000000E-01  8.00000000E-01  1.50000000E+00  8.00000000E-01
  8.00000000E-01  1.50000000E+00  8.00000000E-01  8.00000000E-01  1.50000000E+00
  8.00000000E-01  8.00000000E-01  1.50000000E+00  8.00000000E-01  8.00000000E-01
  1.50000000E+00  8.00000000E-01  8.00000000E-01  1.50000000E+00  8.00000000E-01
  8.00000000E-01  1.50000000E+00  8.00000000E-01  8.00000000E-01  1.50000000E+00
  8.00000000E-01  8.00000000E-01  1.50000000E+00  8.00000000E-01  8.00000000E-01
  1.50000000E+00  8.00000000E-01  8.00000000E-01  1.50000000E+00  8.00000000E-01
  8.00000000E-01  1.50000000E+00  8.00000000E-01  8.00000000E-01  1.50000000E+00
  8.00000000E-01  8.00000000E-01  1.50000000E+00  8.00000000E-01  8.00000000E-01
  1.50000000E+00  8.00000000E-01  8.00000000E-01  1.50000000E+00  8.00000000E-01
  8.00000000E-01  1.50000000E+00  8.00000000E-01  8.00000000E-01  1.50000000E+00
  8.00000000E-01  8.00000000E-01  1.50000000E+00  8.00000000E-01  8.00000000E-01
  1.50000000E+00  8.00000000E-01  8.00000000E-01  1.50000000E+00  8.00000000E-01
  8.00000000E-01  1.50000000E+00  8.00000000E-01  8.00000000E-01  1.50000000E+00
  8.00000000E-01  8.00000000E-01  1.50000000E+00  8.00000000E-01  8.00000000E-01
  1.50000000E+00  8.00000000E-01  8.00000000E-01  1.50000000E+00  8.00000000E-01
  8.00000000E-01  1.50000000E+00  8.00000000E-01  8.00000000E-01  1.50000000E+00
  8.00000000E-01  8.00000000E-01  1.50000000E+00  8.00000000E-01  8.00000000E-01
  1.50000000E+00  8.00000000E-01  8.00000000E-01  1.50000000E+00  8.00000000E-01
  8.00000000E-01  1.50000000E+00  8.00000000E-01  8.00000000E-01  1.50000000E+00
  8.00000000E-01  8.00000000E-01  1.50000000E+00  8.00000000E-01  8.00000000E-01
  1.50000000E+00  8.00000000E-01  8.00000000E-01  1.50000000E+00  8.00000000E-01
  8.00000000E-01  1.50000000E+00  8.00000000E-01  8.00000000E-01  1.50000000E+00
  8.00000000E-01  8.00000000E-01  1.50000000E+00  8.00000000E-01  8.00000000E-01
  1.50000000E+00  8.00000000E-01  8.00000000E-01  1.50000000E+00  8.00000000E-01
  8.00000000E-01  1.50000000E+00  8.00000000E-01  8.00000000E-01  1.50000000E+00
  8.00000000E-01  8.00000000E-01  1.50000000E+00  8.00000000E-01  8.00000000E-01
  1.50000000E+00  8.00000000E-01  8.00000000E-01  1.50000000E+00  8.00000000E-01
  8.00000000E-01  1.50000000E+00  8.00000000E-01  8.00000000E-01  1.50000000E+00
  8.00000000E-01  8.00000000E-01  1.50000000E+00  8.00000000E-01  8.00000000E-01
  1.50000000E+00  8.00000000E-01  8.00000000E-01  1.50000000E+00  8.00000000E-01
  8.00000000E-01  1.50000000E+00  8.00000000E-01  8.00000000E-01  1.50000000E+00
  8.00000000E-01  8.00000000E-01  1.50000000E+00  8.00000000E-01  8.00000000E-01
  1.50000000E+00  8.00000000E-01  8.00000000E-01  1.50000000E+00  8.00000000E-01
  8.00000000E-01  1.50000000E+00  8.00000000E-01  8.00000000E-01  1.50000000E+00
  8.00000000E-01  8.00000000E-01  1.50000000E+00  8.00000000E-01  8.00000000E-01
  1.50000000E+00  8.00000000E-01  8.00000000E-01  1.50000000E+00  8.00000000E-01
  8.00000000E-01  1.50000000E+00  8.00000000E-01  8.00000000E-01  1.50000000E+00
  8.00000000E-01  8.00000000E-01  1.50000000E+00  8.00000000E-01  8.00000000E-01
  1.50000000E+00  8.00000000E-01  8.00000000E-01  1.50000000E+00  8.00000000E-01
  8.00000000E-01  1.50000000E+00  8.00000000E-01  8.00000000E-01  1.50000000E+00
  8.00000000E-01  8.00000000E-01  1.50000000E+00  8.00000000E-01  8.00000000E-01
  1.50000000E+00  8.00000000E-01  8.00000000E-01  1.50000000E+00  8.00000000E-01
  8.00000000E-01  1.50000000E+00  8.00000000E-01  8.00000000E-01  1.50000000E+00
  8.00000000E-01  8.00000000E-01  1.50000000E+00  8.00000000E-01  8.00000000E-01
  1.50000000E+00  8.00000000E-01  8.00000000E-01  1.50000000E+00  8.00000000E-01
  8.00000000E-01  1.50000000E+00  8.00000000E-01  8.00000000E-01  1.50000000E+00
  8.00000000E-01  8.00000000E-01  1.50000000E+00  8.00000000E-01  8.00000000E-01
  1.50000000E+00  8.00000000E-01  8.00000000E-01  1.50000000E+00  8.00000000E-01
  8.00000000E-01  1.50000000E+00  8.00000000E-01  8.00000000E-01  1.50000000E+00
  8.00000000E-01  8.00000000E-01  1.50000000E+00  8.00000000E-01  8.00000000E-01
  1.50000000E+00  8.00000000E-01  8.00000000E-01  1.50000000E+00  8.00000000E-01
  8.00000000E-01  1.50000000E+00  8.00000000E-01  8.00000000E-01  1.50000000E+00
  8.00000000E-01  8.00000000E-01  1.50000000E+00  8.00000000E-01  8.00000000E-01
  1.50000000E+00  8.00000000E-01  8.00000000E-01  1.50000000E+00  8.00000000E-01
  8.00000000E-01  1.50000000E+00  8.00000000E-01  8.00000000E-01  1.50000000E+00
  8.00000000E-01  8.00000000E-01  1.50000000E+00  8.00000000E-01  8.00000000E-01
  1.50000000E+00  8.00000000E-01  8.00000000E-01  1.50000000E+00  8.00000000E-01
  8.00000000E-01  1.50000000E+00  8.00000000E-01  8.00000000E-01  1.50000000E+00
  8.00000000E-01  8.00000000E-01  1.50000000E+00  8.00000000E-01  8.00000000E-01
  1.50000000E+00  8.00000000E-01  8.00000000E-01  1.50000000E+00  8.00000000E-01
  8.00000000E-01  1.50000000E+00  8.00000000E-01  8.00000000E-01  1.50000000E+00
  8.00000000E-01  8.00000000E-01  1.50000000E+00  8.00000000E-01  8.00000000E-01
  1.50000000E+00  8.00000000E-01  8.00000000E-01  1.50000000E+00  8.00000000E-01
  8.00000000E-01  1.50000000E+00  8.00000000E-01  8.00000000E-01  1.50000000E+00
  8.00000000E-01  8.00000000E-01  1.50000000E+00  8.00000000E-01  8.00000000E-01
  1.50000000E+00  8.00000000E-01  8.00000000E-01  1.50000000E+00  8.00000000E-01
  8.00000000E-01  1.50000000E+00  8.00000000E-01  8.00000000E-01  1.50000000E+00
  8.00000000E-01  8.00000000E-01  1.50000000E+00  8.00000000E-01  8.00000000E-01
  1.50000000E+00  8.00000000E-01  8.00000000E-01  1.50000000E+00  8.00000000E-01
  8.00000000E-01  1.50000000E+00  8.00000000E-01  8.00000000E-01  1.50000000E+00
  8.00000000E-01  8.00000000E-01  1.50000000E+00  8.00000000E-01  8.00000000E-01
  1.50000000E+00  8.00000000E-01  8.00000000E-01  1.50000000E+00  8.00000000E-01
  8.00000000E-01  1.50000000E+00  8.00000000E-01  8.00000000E-01  1.50000000E+00
  8.00000000E-01  8.00000000E-01  1.50000000E+00  8.00000000E-01  8.00000000E-01
  1.50000000E+00  8.00000000E-01  8.00000000E-01  1.50000000E+00  8.00000000E-01
  8.00000000E-01  1.50000000E+00  8.00000000E-01  8.00000000E-01  1.50000000E+00
  8.00000000E-01  8.00000000E-01  1.50000000E+00  8.00000000E-01  8.00000000E-01
  1.50000000E+00  8.00000000E-01  8.00000000E-01  1.50000000E+00  8.00000000E-01
  8.00000000E-01  1.50000000E+00  8.00000000E-01  8.00000000E-01  1.50000000E+00
  8.00000000E-01  8.00000000E-01  1.50000000E+00  8.00000000E-01  8.00000000E-01
  1.50000000E+00  8.00000000E-01  8.00000000E-01  1.50000000E+00  8.00000000E-01
  8.00000000E-01  1.50000000E+00  8.00000000E-01  8.00000000E-01  1.50000000E+00
  8.00000000E-01  8.00000000E-01  1.50000000E+00  8.00000000E-01  8.00000000E-01
  1.50000000E+00  8.00000000E-01  8.00000000E-01  1.50000000E+00  8.00000000E-01
  8.00000000E-01  1.50000000E+00  8.00000000E-01  8.00000000E-01  1.50000000E+00
  8.00000000E-01  8.00000000E-01  1.50000000E+00  8.00000000E-01  8.00000000E-01
  1.50000000E+00  8.00000000E-01  8.00000000E-01  1.50000000E+00  8.00000000E-01
  8.00000000E-01  1.50000000E+00  8.00000000E-01  8.00000000E-01  1.50000000E+00
  8.00000000E-01  8.00000000E-01  1.50000000E+00  8.00000000E-01  8.00000000E-01
  1.50000000E+00  8.00000000E-01  8.00000000E-01  1.50000000E+00  8.00000000E-01
  8.00000000E-01  1.50000000E+00  8.00000000E-01  8.00000000E-01  1.50000000E+00
  8.00000000E-01  8.00000000E-01  1.50000000E+00  8.00000000E-01  8.00000000E-01
  1.50000000E+00  8.00000000E-01  8.00000000E-01  1.50000000E+00  8.00000000E-01
  8.00000000E-01  1.50000000E+00  8.00000000E-01  8.00000000E-01  1.50000000E+00
  8.00000000E-01  8.00000000E-01  1.50000000E+00  8.00000000E-01  8.00000000E-01
  1.50000000E+00  8.00000000E-01  8.00000000E-01  1.50000000E+00  8.00000000E-01
  8.00000000E-01  1.50000000E+00  8.00000000E-01  8.00000000E-01  1.50000000E+00
  8.00000000E-01  8.00000000E-01  1.50000000E+00  8.00000000E-01  8.00000000E-01
  1.50000000E+00  8.00000000E-01  8.00000000E-01  1.50000000E+00  8.00000000E-01
  8.00000000E-01  1.50000000E+00  8.00000000E-01  8.00000000E-01  1.50000000E+00
  8.00000000E-01  8.00000000E-01  1.50000000E+00  8.00000000E-01  8.00000000E-01
  1.50000000E+00  8.00000000E-01  8.00000000E-01  1.50000000E+00  8.00000000E-01
  8.00000000E-01  1.50000000E+00  8.00000000E-01  8.00000000E-01  1.50000000E+00
  8.00000000E-01  8.00000000E-01  1.50000000E+00  8.00000000E-01  8.00000000E-01
  1.50000000E+00  8.00000000E-01  8.00000000E-01  1.50000000E+00  8.00000000E-01
  8.00000000E-01  1.50000000E+00  8.00000000E-01  8.00000000E-01  1.50000000E+00
  8.00000000E-01  8.00000000E-01  1.50000000E+00  8.00000000E-01  8.00000000E-01
  1.50000000E+00  8.00000000E-01  8.00000000E-01  1.50000000E+00  8.00000000E-01
  8.00000000E-01  1.50000000E+00  8.00000000E-01  8.00000000E-01  1.50000000E+00
  8.00000000E-01  8.00000000E-01  1.50000000E+00  8.00000000E-01  8.00000000E-01
  1.50000000E+00  8.00000000E-01  8.00000000E-01  1.50000000E+00  8.00000000E-01
  8.00000000E-01  1.50000000E+00  8.00000000E-01  8.00000000E-01  1.50000000E+00
  8.00000000E-01  8.00000000E-01  1.50000000E+00  8.00000000E-01  8.00000000E-01
  1.50000000E+00  8.00000000E-01  8.00000000E-01  1.50000000E+00  8.00000000E-01
  8.00000000E-01  1.50000000E+00  8.00000000E-01  8.00000000E-01  1.50000000E+00
  8.00000000E-01  8.00000000E-01  1.50000000E+00  8.00000000E-01  8.00000000E-01
  1.50000000E+00  8.00000000E-01  8.00000000E-01  1.50000000E+00  8.00000000E-01
  8.00000000E-01  1.50000000E+00  8.00000000E-01  8.00000000E-01  1.50000000E+00
  8.00000000E-01  8.00000000E-01  1.50000000E+00  8.00000000E-01  8.00000000E-01
  1.50000000E+00  8.00000000E-01  8.00000000E-01  1.50000000E+00  8.00000000E-01
  8.00000000E-01  1.50000000E+00  8.00000000E-01  8.00000000E-01  1.50000000E+00
  8.00000000E-01  8.00000000E-01  1.50000000E+00  8.00000000E-01  8.00000000E-01
  1.50000000E+00  8.00000000E-01  8.00000000E-01  1.50000000E+00  8.00000000E-01
  8.00000000E-01  1.50000000E+00  8.00000000E-01  8.00000000E-01  1.50000000E+00
  8.00000000E-01  8.00000000E-01  1.50000000E+00  8.00000000E-01  8.00000000E-01
  1.50000000E+00  8.00000000E-01  8.00000000E-01  1.50000000E+00  8.00000000E-01
  8.00000000E-01  1.50000000E+00  8.00000000E-01  8.00000000E-01  1.50000000E+00
  8.00000000E-01  8.00000000E-01  1.50000000E+00  8.00000000E-01  8.00000000E-01
  1.50000000E+00  8.00000000E-01  8.00000000E-01  1.50000000E+00  8.00000000E-01
  8.00000000E-01  1.50000000E+00  8.00000000E-01  8.00000000E-01  1.50000000E+00
  8.00000000E-01  8.00000000E-01  1.50000000E+00  8.00000000E-01  8.00000000E-01
  1.50000000E+00  8.00000000E-01  8.00000000E-01  1.50000000E+00  8.00000000E-01
  8.00000000E-01  1.50000000E+00  8.00000000E-01  8.00000000E-01  1.50000000E+00
  8.00000000E-01  8.00000000E-01  1.50000000E+00  8.00000000E-01  8.00000000E-01
  1.50000000E+00  8.00000000E-01  8.00000000E-01  1.50000000E+00  8.00000000E-01
  8.00000000E-01  1.50000000E+00  8.00000000E-01  8.00000000E-01  1.50000000E+00
  8.00000000E-01  8.00000000E-01  1.50000000E+00  8.00000000E-01  8.00000000E-01
  1.50000000E+00  8.00000000E-01  8.00000000E-01  1.50000000E+00  8.00000000E-01
  8.00000000E-01  1.50000000E+00  8.00000000E-01  8.00000000E-01  1.50000000E+00
  8.00000000E-01  8.00000000E-01  1.50000000E+00  8.00000000E-01  8.00000000E-01
  1.50000000E+00  8.00000000E-01  8.00000000E-01  1.50000000E+00  8.00000000E-01
  8.00000000E-01  1.50000000E+00  8.00000000E-01  8.00000000E-01  1.50000000E+00
  8.00000000E-01  8.00000000E-01  1.50000000E+00  8.00000000E-01  8.00000000E-01
  1.50000000E+00  8.00000000E-01  8.00000000E-01  1.50000000E+00  8.00000000E-01
  8.00000000E-01  1.50000000E+00  8.00000000E-01  8.00000000E-01  1.50000000E+00
  8.00000000E-01  8.00000000E-01  1.50000000E+00  8.00000000E-01  8.00000000E-01
  1.50000000E+00  8.00000000E-01  8.00000000E-01  1.50000000E+00  8.00000000E-01
  8.00000000E-01  1.50000000E+00  8.00000000E-01  8.00000000E-01  1.50000000E+00
  8.00000000E-01  8.00000000E-01  1.50000000E+00  8.00000000E-01  8.00000000E-01
  1.50000000E+00  8.00000000E-01  8.00000000E-01  1.50000000E+00  8.00000000E-01
  8.00000000E-01  1.50000000E+00  8.00000000E-01  8.00000000E-01  1.50000000E+00
  8.00000000E-01  8.00000000E-01  1.50000000E+00  8.00000000E-01  8.00000000E-01
  1.50000000E+00  8.00000000E-01  8.00000000E-01  1.50000000E+00  8.00000000E-01
  8.00000000E-01  1.50000000E+00  8.00000000E-01  8.00000000E-01  1.50000000E+00
  8.00000000E-01  8.00000000E-01  1.50000000E+00  8.00000000E-01  8.00000000E-01
  1.50000000E+00  8.00000000E-01  8.00000000E-01  1.50000000E+00  8.00000000E-01
  8.00000000E-01  1.50000000E+00  8.00000000E-01  8.00000000E-01  1.50000000E+00
  8.00000000E-01  8.00000000E-01  1.50000000E+00  8.00000000E-01  8.00000000E-01
  1.50000000E+00  8.00000000E-01  8.00000000E-01  1.50000000E+00  8.00000000E-01
  8.00000000E-01  1.50000000E+00  8.00000000E-01  8.00000000E-01  1.50000000E+00
  8.00000000E-01  8.00000000E-01  1.50000000E+00  8.00000000E-01  8.00000000E-01
  1.50000000E+00  8.00000000E-01  8.00000000E-01  1.50000000E+00  8.00000000E-01
  8.00000000E-01  1.50000000E+00  8.00000000E-01  8.00000000E-01  1.50000000E+00
  8.00000000E-01  8.00000000E-01  1.50000000E+00  8.00000000E-01  8.00000000E-01
  1.50000000E+00  8.00000000E-01  8.00000000E-01  1.50000000E+00  8.00000000E-01
  8.00000000E-01  1.50000000E+00  8.00000000E-01  8.00000000E-01  1.50000000E+00
  8.00000000E-01  8.00000000E-01  1.50000000E+00  8.00000000E-01  8.00000000E-01
  1.50000000E+00  8.00000000E-01  8.00000000E-01  1.50000000E+00  8.00000000E-01
  8.00000000E-01  1.50000000E+00  8.00000000E-01  8.00000000E-01  1.50000000E+00
  8.00000000E-01  8.00000000E-01  1.50000000E+00  8.00000000E-01  8.00000000E-01
  1.50000000E+00  8.00000000E-01  8.00000000E-01  1.50000000E+00  8.00000000E-01
  8.00000000E-01  1.50000000E+00  8.00000000E-01  8.00000000E-01  1.50000000E+00
  8.00000000E-01  8.00000000E-01  1.50000000E+00  8.00000000E-01  8.00000000E-01
  1.50000000E+00  8.00000000E-01  8.00000000E-01  1.50000000E+00  8.00000000E-01
  8.00000000E-01  1.50000000E+00  8.00000000E-01  8.00000000E-01  1.50000000E+00
  8.00000000E-01  8.00000000E-01  1.50000000E+00  8.00000000E-01  8.00000000E-01
  1.50000000E+00  8.00000000E-01  8.00000000E-01  1.50000000E+00  8.00000000E-01
  8.00000000E-01  1.50000000E+00  8.00000000E-01  8.00000000E-01  1.50000000E+00
  8.00000000E-01  8.00000000E-01  1.50000000E+00  8.00000000E-01  8.00000000E-01
  1.50000000E+00  8.00000000E-01  8.00000000E-01  1.50000000E+00  8.00000000E-01
  8.00000000E-01  1.50000000E+00  8.00000000E-01  8.00000000E-01  1.50000000E+00
  8.00000000E-01  8.00000000E-01  1.50000000E+00  8.00000000E-01  8.00000000E-01
  1.50000000E+00  8.00000000E-01  8.00000000E-01  1.50000000E+00  8.00000000E-01
  8.00000000E-01  1.50000000E+00  8.00000000E-01  8.00000000E-01  1.50000000E+00
  8.00000000E-01  8.00000000E-01  1.50000000E+00  8.00000000E-01  8.00000000E-01
  1.50000000E+00  8.00000000E-01  8.00000000E-01  1.50000000E+00  8.00000000E-01
  8.00000000E-01  1.50000000E+00  8.00000000E-01  8.00000000E-01  1.50000000E+00
  8.00000000E-01  8.00000000E-01  1.50000000E+00  8.00000000E-01  8.00000000E-01
  1.50000000E+00  8.00000000E-01  8.00000000E-01  1.50000000E+00  8.00000000E-01
  8.00000000E-01  1.50000000E+00  8.00000000E-01  8.00000000E-01  1.50000000E+00
  8.00000000E-01  8.00000000E-01  1.50000000E+00  8.00000000E-01  8.00000000E-01
  1.50000000E+00  8.00000000E-01  8.00000000E-01  1.50000000E+00  8.00000000E-01
  8.00000000E-01  1.50000000E+00  8.00000000E-01  8.00000000E-01  1.50000000E+00
  8.00000000E-01  8.00000000E-01  1.50000000E+00  8.00000000E-01  8.00000000E-01
  1.50000000E+00  8.00000000E-01  8.00000000E-01  1.50000000E+00  8.00000000E-01
  8.00000000E-01  1.50000000E+00  8.00000000E-01  8.00000000E-01  1.50000000E+00
  8.00000000E-01  8.00000000E-01  1.50000000E+00  8.00000000E-01  8.00000000E-01
  1.50000000E+00  8.00000000E-01  8.00000000E-01  1.50000000E+00  8.00000000E-01
  8.00000000E-01  1.50000000E+00  8.00000000E-01  8.00000000E-01  1.50000000E+00
  8.00000000E-01  8.00000000E-01  1.50000000E+00  8.00000000E-01  8.00000000E-01
  1.50000000E+00  8.00000000E-01  8.00000000E-01  1.50000000E+00  8.00000000E-01
  8.00000000E-01  1.50000000E+00  8.00000000E-01  8.00000000E-01  1.50000000E+00
  8.00000000E-01  8.00000000E-01  1.50000000E+00  8.00000000E-01  8.00000000E-01
  1.50000000E+00  8.00000000E-01  8.00000000E-01  1.50000000E+00  8.00000000E-01
  8.00000000E-01  1.50000000E+00  8.00000000E-01  8.00000000E-01  1.50000000E+00
  8.00000000E-01  8.00000000E-01  1.50000000E+00  8.00000000E-01  8.00000000E-01
  1.50000000E+00  8.00000000E-01  8.00000000E-01  1.50000000E+00  8.00000000E-01
  8.00000000E-01  1.50000000E+00  8.00000000E-01  8.00000000E-01  1.50000000E+00
  8.00000000E-01  8.00000000E-01  1.50000000E+00  8.00000000E-01  8.00000000E-01
  1.50000000E+00  8.00000000E-01  8.00000000E-01  1.50000000E+00  8.00000000E-01
  8.00000000E-01  1.50000000E+00  8.00000000E-01  8.00000000E-01  1.50000000E+00
  8.00000000E-01  8.00000000E-01  1.50000000E+00  8.00000000E-01  8.00000000E-01
  1.50000000E+00  8.00000000E-01  8.00000000E-01  1.50000000E+00  8.00000000E-01
  8.00000000E-01  1.50000000E+00  8.00000000E-01  8.00000000E-01  1.50000000E+00
  8.00000000E-01  8.00000000E-01  1.50000000E+00  8.00000000E-01  8.00000000E-01
  1.50000000E+00  8.00000000E-01  8.00000000E-01  1.50000000E+00  8.00000000E-01
  8.00000000E-01  1.50000000E+00  8.00000000E-01  8.00000000E-01  1.50000000E+00
  8.00000000E-01  8.00000000E-01  1.50000000E+00  8.00000000E-01  8.00000000E-01
  1.50000000E+00  8.00000000E-01  8.00000000E-01  1.50000000E+00  8.00000000E-01
  8.00000000E-01  1.50000000E+00  8.00000000E-01  8.00000000E-01  1.50000000E+00
  8.00000000E-01  8.00000000E-01  1.50000000E+00  8.00000000E-01  8.00000000E-01
  1.50000000E+00  8.00000000E-01  8.00000000E-01  1.50000000E+00  8.00000000E-01
  8.00000000E-01  1.50000000E+00  8.00000000E-01  8.00000000E-01  1.50000000E+00
  8.00000000E-01  8.00000000E-01  1.50000000E+00  8.00000000E-01  8.00000000E-01
  1.50000000E+00  8.00000000E-01  8.00000000E-01  1.50000000E+00  8.00000000E-01
  8.00000000E-01  1.50000000E+00  8.00000000E-01  8.00000000E-01  1.50000000E+00
  8.00000000E-01  8.00000000E-01  1.50000000E+00  8.00000000E-01  8.00000000E-01
  1.50000000E+00  8.00000000E-01  8.00000000E-01  1.50000000E+00  8.00000000E-01
  8.00000000E-01  1.50000000E+00  8.00000000E-01  8.00000000E-01  1.50000000E+00
  8.00000000E-01  8.00000000E-01  1.50000000E+00  8.00000000E-01  8.00000000E-01
  1.50000000E+00  8.00000000E-01  8.00000000E-01  1.50000000E+00  8.00000000E-01
  8.00000000E-01  1.50000000E+00  8.00000000E-01  8.00000000E-01  1.50000000E+00
  8.00000000E-01  8.00000000E-01  1.50000000E+00  8.00000000E-01  8.00000000E-01
  1.50000000E+00  8.00000000E-01  8.00000000E-01  1.50000000E+00  8.00000000E-01
  8.00000000E-01  1.50000000E+00  8.00000000E-01  8.00000000E-01  1.50000000E+00
  8.00000000E-01  8.00000000E-01  1.50000000E+00  8.00000000E-01  8.00000000E-01
  1.50000000E+00  8.00000000E-01  8.00000000E-01  1.50000000E+00  8.00000000E-01
  8.00000000E-01  1.50000000E+00  8.00000000E-01  8.00000000E-01  1.50000000E+00
  8.00000000E-01  8.00000000E-01  1.50000000E+00  8.00000000E-01  8.00000000E-01
  1.50000000E+00  8.00000000E-01  8.00000000E-01  1.50000000E+00  8.00000000E-01
  8.00000000E-01  1.50000000E+00  8.00000000E-01  8.00000000E-01  1.50000000E+00
  8.00000000E-01  8.00000000E-01  1.50000000E+00  8.00000000E-01  8.00000000E-01
  1.50000000E+00  8.00000000E-01  8.00000000E-01  1.50000000E+00  8.00000000E-01
  8.00000000E-01  1.50000000E+00  8.00000000E-01  8.00000000E-01  1.50000000E+00
  8.00000000E-01  8.00000000E-01  1.50000000E+00  8.00000000E-01  8.00000000E-01
  1.50000000E+00  8.00000000E-01  8.00000000E-01  1.50000000E+00  8.00000000E-01
  8.00000000E-01  1.50000000E+00  8.00000000E-01  8.00000000E-01  1.50000000E+00
  8.00000000E-01  8.00000000E-01  1.50000000E+00  8.00000000E-01  8.00000000E-01
  1.50000000E+00  8.00000000E-01  8.00000000E-01  1.50000000E+00  8.00000000E-01
  8.00000000E-01  1.50000000E+00  8.00000000E-01  8.00000000E-01  1.50000000E+00
  8.00000000E-01  8.00000000E-01  1.50000000E+00  8.00000000E-01  8.00000000E-01
  1.50000000E+00  8.00000000E-01  8.00000000E-01  1.50000000E+00  8.00000000E-01
  8.00000000E-01  1.50000000E+00  8.00000000E-01  8.00000000E-01  1.50000000E+00
  8.00000000E-01  8.00000000E-01  1.50000000E+00  8.00000000E-01  8.00000000E-01
  1.50000000E+00  8.00000000E-01  8.00000000E-01  1.50000000E+00  8.00000000E-01
  8.00000000E-01  1.50000000E+00  8.00000000E-01  8.00000000E-01  1.50000000E+00
  8.00000000E-01  8.00000000E-01  1.50000000E+00  8.00000000E-01  8.00000000E-01
  1.50000000E+00  8.00000000E-01  8.00000000E-01  1.50000000E+00  8.00000000E-01
  8.00000000E-01  1.50000000E+00  8.00000000E-01  8.00000000E-01  1.50000000E+00
  8.00000000E-01  8.00000000E-01  1.50000000E+00  8.00000000E-01  8.00000000E-01
  1.50000000E+00  8.00000000E-01  8.00000000E-01  1.50000000E+00  8.00000000E-01
  8.00000000E-01  1.50000000E+00  8.00000000E-01  8.00000000E-01  1.50000000E+00
  8.00000000E-01  8.00000000E-01  1.50000000E+00  8.00000000E-01  8.00000000E-01
  1.50000000E+00  8.00000000E-01  8.00000000E-01  1.50000000E+00  8.00000000E-01
  8.00000000E-01  1.50000000E+00  8.00000000E-01  8.00000000E-01  1.50000000E+00
  8.00000000E-01  8.00000000E-01  1.50000000E+00  8.00000000E-01  8.00000000E-01
  1.50000000E+00  8.00000000E-01  8.00000000E-01  1.50000000E+00  8.00000000E-01
  8.00000000E-01  1.50000000E+00  8.00000000E-01  8.00000000E-01  1.50000000E+00
  8.00000000E-01  8.00000000E-01  1.50000000E+00  8.00000000E-01  8.00000000E-01
  1.50000000E+00  8.00000000E-01  8.00000000E-01  1.50000000E+00  8.00000000E-01
  8.00000000E-01  1.50000000E+00  8.00000000E-01  8.00000000E-01  1.50000000E+00
  8.00000000E-01  8.00000000E-01  1.50000000E+00  8.00000000E-01  8.00000000E-01
  1.50000000E+00  8.00000000E-01  8.00000000E-01  1.50000000E+00  8.00000000E-01
  8.00000000E-01  1.50000000E+00  8.00000000E-01  8.00000000E-01  1.50000000E+00
  8.00000000E-01  8.00000000E-01  1.50000000E+00  8.00000000E-01  8.00000000E-01
  1.50000000E+00  8.00000000E-01  8.00000000E-01  1.50000000E+00  8.00000000E-01
  8.00000000E-01  1.50000000E+00  8.00000000E-01  8.00000000E-01  1.50000000E+00
  8.00000000E-01  8.00000000E-01  1.50000000E+00  8.00000000E-01  8.00000000E-01
  1.50000000E+00  8.00000000E-01  8.00000000E-01  1.50000000E+00  8.00000000E-01
  8.00000000E-01  1.50000000E+00  8.00000000E-01  8.00000000E-01  1.50000000E+00
  8.00000000E-01  8.00000000E-01  1.50000000E+00  8.00000000E-01  8.00000000E-01
  1.50000000E+00  8.00000000E-01  8.00000000E-01  1.50000000E+00  8.00000000E-01
  8.00000000E-01  1.50000000E+00  8.00000000E-01  8.00000000E-01  1.50000000E+00
  8.00000000E-01  8.00000000E-01  1.50000000E+00  8.00000000E-01  8.00000000E-01
  1.50000000E+00  8.00000000E-01  8.00000000E-01  1.50000000E+00  8.00000000E-01
  8.00000000E-01  1.50000000E+00  8.00000000E-01  8.00000000E-01  1.50000000E+00
  8.00000000E-01  8.00000000E-01  1.50000000E+00  8.00000000E-01  8.00000000E-01
  1.50000000E+00  8.00000000E-01  8.00000000E-01  1.50000000E+00  8.00000000E-01
  8.00000000E-01  1.50000000E+00  8.00000000E-01  8.00000000E-01  1.50000000E+00
  8.00000000E-01  8.00000000E-01  1.50000000E+00  8.00000000E-01  8.00000000E-01
  1.50000000E+00  8.00000000E-01  8.00000000E-01  1.50000000E+00  8.00000000E-01
  8.00000000E-01  1.50000000E+00  8.00000000E-01  8.00000000E-01  1.50000000E+00
  8.00000000E-01  8.00000000E-01  1.50000000E+00  8.00000000E-01  8.00000000E-01
  1.50000000E+00  8.00000000E-01  8.00000000E-01  1.50000000E+00  8.00000000E-01
  8.00000000E-01  1.50000000E+00  8.00000000E-01  8.00000000E-01  1.50000000E+00
  8.00000000E-01  8.00000000E-01  1.50000000E+00  8.00000000E-01  8.00000000E-01
  1.50000000E+00  8.00000000E-01  8.00000000E-01  1.50000000E+00  8.00000000E-01
  8.00000000E-01  1.50000000E+00  8.00000000E-01  8.00000000E-01  1.50000000E+00
  8.00000000E-01  8.00000000E-01  1.50000000E+00  8.00000000E-01  8.00000000E-01
  1.50000000E+00  8.00000000E-01  8.00000000E-01  1.50000000E+00  8.00000000E-01
  8.00000000E-01  1.50000000E+00  8.00000000E-01  8.00000000E-01  1.50000000E+00
  8.00000000E-01  8.00000000E-01  1.50000000E+00  8.00000000E-01  8.00000000E-01
  1.50000000E+00  8.00000000E-01  8.00000000E-01  1.50000000E+00  8.00000000E-01
  8.00000000E-01  1.50000000E+00  8.00000000E-01  8.00000000E-01  1.50000000E+00
  8.00000000E-01  8.00000000E-01  1.50000000E+00  8.00000000E-01  8.00000000E-01
  1.50000000E+00  8.00000000E-01  8.00000000E-01  1.50000000E+00  8.00000000E-01
  8.00000000E-01  1.50000000E+00  8.00000000E-01  8.00000000E-01  1.50000000E+00
  8.00000000E-01  8.00000000E-01  1.50000000E+00  8.00000000E-01  8.00000000E-01
  1.50000000E+00  8.00000000E-01  8.00000000E-01  1.50000000E+00  8.00000000E-01
  8.00000000E-01  1.50000000E+00  8.00000000E-01  8.00000000E-01  1.50000000E+00
  8.00000000E-01  8.00000000E-01  1.50000000E+00  8.00000000E-01  8.00000000E-01
  1.50000000E+00  8.00000000E-01  8.00000000E-01  1.50000000E+00  8.00000000E-01
  8.00000000E-01  1.50000000E+00  8.00000000E-01  8.00000000E-01  1.50000000E+00
  8.00000000E-01  8.00000000E-01  1.50000000E+00  8.00000000E-01  8.00000000E-01
  1.50000000E+00  8.00000000E-01  8.00000000E-01  1.50000000E+00  8.00000000E-01
  8.00000000E-01  1.50000000E+00  8.00000000E-01  8.00000000E-01  1.50000000E+00
  8.00000000E-01  8.00000000E-01  1.50000000E+00  8.00000000E-01  8.00000000E-01
  1.50000000E+00  8.00000000E-01  8.00000000E-01  1.50000000E+00  8.00000000E-01
  8.00000000E-01  1.50000000E+00  8.00000000E-01  8.00000000E-01  1.50000000E+00
  8.00000000E-01  8.00000000E-01  1.50000000E+00  8.00000000E-01  8.00000000E-01
  1.50000000E+00  8.00000000E-01  8.00000000E-01  1.50000000E+00  8.00000000E-01
  8.00000000E-01  1.50000000E+00  8.00000000E-01  8.00000000E-01  1.50000000E+00
  8.00000000E-01  8.00000000E-01  1.50000000E+00  8.00000000E-01  8.00000000E-01
  1.50000000E+00  8.00000000E-01  8.00000000E-01  1.50000000E+00  8.00000000E-01
  8.00000000E-01  1.50000000E+00  8.00000000E-01  8.00000000E-01  1.50000000E+00
  8.00000000E-01  8.00000000E-01  1.50000000E+00  8.00000000E-01  8.00000000E-01
  1.50000000E+00  8.00000000E-01  8.00000000E-01  1.50000000E+00  8.00000000E-01
  8.00000000E-01  1.50000000E+00  8.00000000E-01  8.00000000E-01  1.50000000E+00
  8.00000000E-01  8.00000000E-01  1.50000000E+00  8.00000000E-01  8.00000000E-01
  1.50000000E+00  8.00000000E-01  8.00000000E-01  1.50000000E+00  8.00000000E-01
  8.00000000E-01  1.50000000E+00  8.00000000E-01  8.00000000E-01  1.50000000E+00
  8.00000000E-01  8.00000000E-01  1.50000000E+00  8.00000000E-01  8.00000000E-01
  1.50000000E+00  8.00000000E-01  8.00000000E-01  1.50000000E+00  8.00000000E-01
  8.00000000E-01  1.50000000E+00  8.00000000E-01  8.00000000E-01  1.50000000E+00
  8.00000000E-01  8.00000000E-01  1.50000000E+00  8.00000000E-01  8.00000000E-01
  1.50000000E+00  8.00000000E-01  8.00000000E-01  1.50000000E+00  8.00000000E-01
  8.00000000E-01  1.50000000E+00  8.00000000E-01  8.00000000E-01  1.50000000E+00
  8.00000000E-01  8.00000000E-01  1.50000000E+00  8.00000000E-01  8.00000000E-01
  1.50000000E+00  8.00000000E-01  8.00000000E-01  1.50000000E+00  8.00000000E-01
  8.00000000E-01  1.50000000E+00  8.00000000E-01  8.00000000E-01  1.50000000E+00
  8.00000000E-01  8.00000000E-01  1.50000000E+00  8.00000000E-01  8.00000000E-01
  1.50000000E+00  8.00000000E-01  8.00000000E-01  1.50000000E+00  8.00000000E-01
  8.00000000E-01  1.50000000E+00  8.00000000E-01  8.00000000E-01  1.50000000E+00
  8.00000000E-01  8.00000000E-01  1.50000000E+00  8.00000000E-01  8.00000000E-01
  1.50000000E+00  8.00000000E-01  8.00000000E-01  1.50000000E+00  8.00000000E-01
  8.00000000E-01  1.50000000E+00  8.00000000E-01  8.00000000E-01  1.50000000E+00
  8.00000000E-01  8.00000000E-01  1.50000000E+00  8.00000000E-01  8.00000000E-01
  1.50000000E+00  8.00000000E-01  8.00000000E-01  1.50000000E+00  8.00000000E-01
  8.00000000E-01  1.50000000E+00  8.00000000E-01  8.00000000E-01  1.50000000E+00
  8.00000000E-01  8.00000000E-01  1.50000000E+00  8.00000000E-01  8.00000000E-01
  1.50000000E+00  8.00000000E-01  8.00000000E-01  1.50000000E+00  8.00000000E-01
  8.00000000E-01  1.50000000E+00  8.00000000E-01  8.00000000E-01  1.50000000E+00
  8.00000000E-01  8.00000000E-01  1.50000000E+00  8.00000000E-01  8.00000000E-01
  1.50000000E+00  8.00000000E-01  8.00000000E-01  1.50000000E+00  8.00000000E-01
  8.00000000E-01  1.50000000E+00  8.00000000E-01  8.00000000E-01  1.50000000E+00
  8.00000000E-01  8.00000000E-01  1.50000000E+00  8.00000000E-01  8.00000000E-01
  1.50000000E+00  8.00000000E-01  8.00000000E-01  1.50000000E+00  8.00000000E-01
  8.00000000E-01  1.50000000E+00  8.00000000E-01  8.00000000E-01  1.50000000E+00
  8.00000000E-01  8.00000000E-01  1.50000000E+00  8.00000000E-01  8.00000000E-01
  1.50000000E+00  8.00000000E-01  8.00000000E-01  1.50000000E+00  8.00000000E-01
  8.00000000E-01  1.50000000E+00  8.00000000E-01  8.00000000E-01  1.50000000E+00
  8.00000000E-01  8.00000000E-01  1.50000000E+00  8.00000000E-01  8.00000000E-01
  1.50000000E+00  8.00000000E-01  8.00000000E-01  1.50000000E+00  8.00000000E-01
  8.00000000E-01  1.50000000E+00  8.00000000E-01  8.00000000E-01  1.50000000E+00
  8.00000000E-01  8.00000000E-01  1.50000000E+00  8.00000000E-01  8.00000000E-01
  1.50000000E+00  8.00000000E-01  8.00000000E-01  1.50000000E+00  8.00000000E-01
  8.00000000E-01  1.50000000E+00  8.00000000E-01  8.00000000E-01  1.50000000E+00
  8.00000000E-01  8.00000000E-01  1.50000000E+00  8.00000000E-01  8.00000000E-01
  1.50000000E+00  8.00000000E-01  8.00000000E-01  1.50000000E+00  8.00000000E-01
  8.00000000E-01  1.50000000E+00  8.00000000E-01  8.00000000E-01  1.50000000E+00
  8.00000000E-01  8.00000000E-01  1.50000000E+00  8.00000000E-01  8.00000000E-01
  1.50000000E+00  8.00000000E-01  8.00000000E-01  1.50000000E+00  8.00000000E-01
  8.00000000E-01  1.50000000E+00  8.00000000E-01  8.00000000E-01  1.50000000E+00
  8.00000000E-01  8.00000000E-01  1.50000000E+00  8.00000000E-01  8.00000000E-01
  1.50000000E+00  8.00000000E-01  8.00000000E-01  1.50000000E+00  8.00000000E-01
  8.00000000E-01  1.50000000E+00  8.00000000E-01  8.00000000E-01  1.50000000E+00
  8.00000000E-01  8.00000000E-01  1.50000000E+00  8.00000000E-01  8.00000000E-01
  1.50000000E+00  8.00000000E-01  8.00000000E-01  1.50000000E+00  8.00000000E-01
  8.00000000E-01  1.50000000E+00  8.00000000E-01  8.00000000E-01  1.50000000E+00
  8.00000000E-01  8.00000000E-01  1.50000000E+00  8.00000000E-01  8.00000000E-01
  1.50000000E+00  8.00000000E-01  8.00000000E-01  1.50000000E+00  8.00000000E-01
  8.00000000E-01  1.50000000E+00  8.00000000E-01  8.00000000E-01  1.50000000E+00
  8.00000000E-01  8.00000000E-01  1.50000000E+00  8.00000000E-01  8.00000000E-01
  1.50000000E+00  8.00000000E-01  8.00000000E-01  1.50000000E+00  8.00000000E-01
  8.00000000E-01  1.50000000E+00  8.00000000E-01  8.00000000E-01  1.50000000E+00
  8.00000000E-01  8.00000000E-01  1.50000000E+00  8.00000000E-01  8.00000000E-01
  1.50000000E+00  8.00000000E-01  8.00000000E-01  1.50000000E+00  8.00000000E-01
  8.00000000E-01  1.50000000E+00  8.00000000E-01  8.00000000E-01  1.50000000E+00
  8.00000000E-01  8.00000000E-01  1.50000000E+00  8.00000000E-01  8.00000000E-01
  1.50000000E+00  8.00000000E-01  8.00000000E-01  1.50000000E+00  8.00000000E-01
  8.00000000E-01  1.50000000E+00  8.00000000E-01  8.00000000E-01  1.50000000E+00
  8.00000000E-01  8.00000000E-01  1.50000000E+00  8.00000000E-01  8.00000000E-01
  1.50000000E+00  8.00000000E-01  8.00000000E-01  1.50000000E+00  8.00000000E-01
  8.00000000E-01  1.50000000E+00  8.00000000E-01  8.00000000E-01  1.50000000E+00
  8.00000000E-01  8.00000000E-01  1.50000000E+00  8.00000000E-01  8.00000000E-01
  1.50000000E+00  8.00000000E-01  8.00000000E-01  1.50000000E+00  8.00000000E-01
  8.00000000E-01  1.50000000E+00  8.00000000E-01  8.00000000E-01  1.50000000E+00
  8.00000000E-01  8.00000000E-01  1.50000000E+00  8.00000000E-01  8.00000000E-01
  1.50000000E+00  8.00000000E-01  8.00000000E-01  1.50000000E+00  8.00000000E-01
  8.00000000E-01  1.50000000E+00  8.00000000E-01  8.00000000E-01  1.50000000E+00
  8.00000000E-01  8.00000000E-01  1.50000000E+00  8.00000000E-01  8.00000000E-01
  1.50000000E+00  8.00000000E-01  8.00000000E-01  1.50000000E+00  8.00000000E-01
  8.00000000E-01  1.50000000E+00  8.00000000E-01  8.00000000E-01  1.50000000E+00
  8.00000000E-01  8.00000000E-01  1.50000000E+00  8.00000000E-01  8.00000000E-01
  1.50000000E+00  8.00000000E-01  8.00000000E-01  1.50000000E+00  8.00000000E-01
  8.00000000E-01  1.50000000E+00  8.00000000E-01  8.00000000E-01  1.50000000E+00
  8.00000000E-01  8.00000000E-01  1.50000000E+00  8.00000000E-01  8.00000000E-01
  1.50000000E+00  8.00000000E-01  8.00000000E-01  1.50000000E+00  8.00000000E-01
  8.00000000E-01  1.50000000E+00  8.00000000E-01  8.00000000E-01  1.50000000E+00
  8.00000000E-01  8.00000000E-01  1.50000000E+00  8.00000000E-01  8.00000000E-01
  1.50000000E+00  8.00000000E-01  8.00000000E-01  1.50000000E+00  8.00000000E-01
  8.00000000E-01  1.50000000E+00  8.00000000E-01  8.00000000E-01  1.50000000E+00
  8.00000000E-01  8.00000000E-01  1.50000000E+00  8.00000000E-01  8.00000000E-01
  1.50000000E+00  8.00000000E-01  8.00000000E-01  1.50000000E+00  8.00000000E-01
  8.00000000E-01  1.50000000E+00  8.00000000E-01  8.00000000E-01  1.50000000E+00
  8.00000000E-01  8.00000000E-01  1.50000000E+00  8.00000000E-01  8.00000000E-01
  1.50000000E+00  8.00000000E-01  8.00000000E-01  1.50000000E+00  8.00000000E-01
  8.00000000E-01  1.50000000E+00  8.00000000E-01  8.00000000E-01  1.50000000E+00
  8.00000000E-01  8.00000000E-01  1.50000000E+00  8.00000000E-01  8.00000000E-01
  1.50000000E+00  8.00000000E-01  8.00000000E-01  1.50000000E+00  8.00000000E-01
  8.00000000E-01  1.50000000E+00  8.00000000E-01  8.00000000E-01  1.50000000E+00
  8.00000000E-01  8.00000000E-01  1.50000000E+00  8.00000000E-01  8.00000000E-01
  1.50000000E+00  8.00000000E-01  8.00000000E-01  1.50000000E+00  8.00000000E-01
  8.00000000E-01  1.50000000E+00  8.00000000E-01  8.00000000E-01  1.50000000E+00
  8.00000000E-01  8.00000000E-01  1.50000000E+00  8.00000000E-01  8.00000000E-01
  1.50000000E+00  8.00000000E-01  8.00000000E-01  1.50000000E+00  8.00000000E-01
  8.00000000E-01  1.50000000E+00  8.00000000E-01  8.00000000E-01  1.50000000E+00
  8.00000000E-01  8.00000000E-01  1.50000000E+00  8.00000000E-01  8.00000000E-01
  1.50000000E+00  8.00000000E-01  8.00000000E-01  1.50000000E+00  8.00000000E-01
  8.00000000E-01  1.50000000E+00  8.00000000E-01  8.00000000E-01  1.50000000E+00
  8.00000000E-01  8.00000000E-01  1.50000000E+00  8.00000000E-01  8.00000000E-01
  1.50000000E+00  8.00000000E-01  8.00000000E-01  1.50000000E+00  8.00000000E-01
  8.00000000E-01  1.50000000E+00  8.00000000E-01  8.00000000E-01  1.50000000E+00
  8.00000000E-01  8.00000000E-01  1.50000000E+00  8.00000000E-01  8.00000000E-01
  1.50000000E+00  8.00000000E-01  8.00000000E-01  1.50000000E+00  8.00000000E-01
  8.00000000E-01  1.50000000E+00  8.00000000E-01  8.00000000E-01  1.50000000E+00
  8.00000000E-01  8.00000000E-01  1.50000000E+00  8.00000000E-01  8.00000000E-01
  1.50000000E+00  8.00000000E-01  8.00000000E-01  1.50000000E+00  8.00000000E-01
  8.00000000E-01  1.50000000E+00  8.00000000E-01  8.00000000E-01  1.50000000E+00
  8.00000000E-01  8.00000000E-01  1.50000000E+00  8.00000000E-01  8.00000000E-01
  1.50000000E+00  8.00000000E-01  8.00000000E-01  1.50000000E+00  8.00000000E-01
  8.00000000E-01  1.50000000E+00  8.00000000E-01  8.00000000E-01  1.50000000E+00
  8.00000000E-01  8.00000000E-01  1.50000000E+00  8.00000000E-01  8.00000000E-01
  1.50000000E+00  8.00000000E-01  8.00000000E-01  1.50000000E+00  8.00000000E-01
  8.00000000E-01  1.50000000E+00  8.00000000E-01  8.00000000E-01  1.50000000E+00
  8.00000000E-01  8.00000000E-01  1.50000000E+00  8.00000000E-01  8.00000000E-01
  1.50000000E+00  8.00000000E-01  8.00000000E-01  1.50000000E+00  8.00000000E-01
  8.00000000E-01  1.50000000E+00  8.00000000E-01  8.00000000E-01  1.50000000E+00
  8.00000000E-01  8.00000000E-01  1.50000000E+00  8.00000000E-01  8.00000000E-01
  1.50000000E+00  8.00000000E-01  8.00000000E-01  1.50000000E+00  8.00000000E-01
  8.00000000E-01  1.50000000E+00  8.00000000E-01  8.00000000E-01  1.50000000E+00
  8.00000000E-01  8.00000000E-01  1.50000000E+00  8.00000000E-01  8.00000000E-01
  1.50000000E+00  8.00000000E-01  8.00000000E-01  1.50000000E+00  8.00000000E-01
  8.00000000E-01  1.50000000E+00  8.00000000E-01  8.00000000E-01  1.50000000E+00
  8.00000000E-01  8.00000000E-01  1.50000000E+00  8.00000000E-01  8.00000000E-01
  1.50000000E+00  8.00000000E-01  8.00000000E-01  1.50000000E+00  8.00000000E-01
  8.00000000E-01  1.50000000E+00  8.00000000E-01  8.00000000E-01  1.50000000E+00
  8.00000000E-01  8.00000000E-01  1.50000000E+00  8.00000000E-01  8.00000000E-01
  1.50000000E+00  8.00000000E-01  8.00000000E-01  1.50000000E+00  8.00000000E-01
  8.00000000E-01  1.50000000E+00  8.00000000E-01  8.00000000E-01  1.50000000E+00
  8.00000000E-01  8.00000000E-01  1.50000000E+00  8.00000000E-01  8.00000000E-01
  1.50000000E+00  8.00000000E-01  8.00000000E-01  1.50000000E+00  8.00000000E-01
  8.00000000E-01  1.50000000E+00  8.00000000E-01  8.00000000E-01  1.50000000E+00
  8.00000000E-01  8.00000000E-01  1.50000000E+00  8.00000000E-01  8.00000000E-01
  1.50000000E+00  8.00000000E-01  8.00000000E-01  1.50000000E+00  8.00000000E-01
  8.00000000E-01  1.50000000E+00  8.00000000E-01  8.00000000E-01  1.50000000E+00
  8.00000000E-01  8.00000000E-01  1.50000000E+00  8.00000000E-01  8.00000000E-01
  1.50000000E+00  8.00000000E-01  8.00000000E-01  1.50000000E+00  8.00000000E-01
  8.00000000E-01  1.50000000E+00  8.00000000E-01  8.00000000E-01  1.50000000E+00
  8.00000000E-01  8.00000000E-01  1.50000000E+00  8.00000000E-01  8.00000000E-01
  1.50000000E+00  8.00000000E-01  8.00000000E-01  1.50000000E+00  8.00000000E-01
  8.00000000E-01  1.50000000E+00  8.00000000E-01  8.00000000E-01  1.50000000E+00
  8.00000000E-01  8.00000000E-01  1.50000000E+00  8.00000000E-01  8.00000000E-01
  1.50000000E+00  8.00000000E-01  8.00000000E-01  1.50000000E+00  8.00000000E-01
  8.00000000E-01  1.50000000E+00  8.00000000E-01  8.00000000E-01  1.50000000E+00
  8.00000000E-01  8.00000000E-01  1.50000000E+00  8.00000000E-01  8.00000000E-01
  1.50000000E+00  8.00000000E-01  8.00000000E-01  1.50000000E+00  8.00000000E-01
  8.00000000E-01  1.50000000E+00  8.00000000E-01  8.00000000E-01  1.50000000E+00
  8.00000000E-01  8.00000000E-01  1.50000000E+00  8.00000000E-01  8.00000000E-01
  1.50000000E+00  8.00000000E-01  8.00000000E-01  1.50000000E+00  8.00000000E-01
  8.00000000E-01  1.50000000E+00  8.00000000E-01  8.00000000E-01  1.50000000E+00
  8.00000000E-01  8.00000000E-01  1.50000000E+00  8.00000000E-01  8.00000000E-01
  1.50000000E+00  8.00000000E-01  8.00000000E-01  1.50000000E+00  8.00000000E-01
  8.00000000E-01  1.50000000E+00  8.00000000E-01  8.00000000E-01  1.50000000E+00
  8.00000000E-01  8.00000000E-01  1.50000000E+00  8.00000000E-01  8.00000000E-01
  1.50000000E+00  8.00000000E-01  8.00000000E-01  1.50000000E+00  8.00000000E-01
  8.00000000E-01  1.50000000E+00  8.00000000E-01  8.00000000E-01  1.50000000E+00
  8.00000000E-01  8.00000000E-01  1.50000000E+00  8.00000000E-01  8.00000000E-01
  1.50000000E+00  8.00000000E-01  8.00000000E-01  1.50000000E+00  8.00000000E-01
  8.00000000E-01  1.50000000E+00  8.00000000E-01  8.00000000E-01  1.50000000E+00
  8.00000000E-01  8.00000000E-01  1.50000000E+00  8.00000000E-01  8.00000000E-01
  1.50000000E+00  8.00000000E-01  8.00000000E-01  1.50000000E+00  8.00000000E-01
  8.00000000E-01  1.50000000E+00  8.00000000E-01  8.00000000E-01  1.50000000E+00
  8.00000000E-01  8.00000000E-01  1.50000000E+00  8.00000000E-01  8.00000000E-01
  1.50000000E+00  8.00000000E-01  8.00000000E-01  1.50000000E+00  8.00000000E-01
  8.00000000E-01  1.50000000E+00  8.00000000E-01  8.00000000E-01  1.50000000E+00
  8.00000000E-01  8.00000000E-01  1.50000000E+00  8.00000000E-01  8.00000000E-01
  1.50000000E+00  8.00000000E-01  8.00000000E-01  1.50000000E+00  8.00000000E-01
  8.00000000E-01  1.50000000E+00  8.00000000E-01  8.00000000E-01  1.50000000E+00
  8.00000000E-01  8.00000000E-01  1.50000000E+00  8.00000000E-01  8.00000000E-01
  1.50000000E+00  8.00000000E-01  8.00000000E-01  1.50000000E+00  8.00000000E-01
  8.00000000E-01  1.50000000E+00  8.00000000E-01  8.00000000E-01  1.50000000E+00
  8.00000000E-01  8.00000000E-01  1.50000000E+00  8.00000000E-01  8.00000000E-01
  1.50000000E+00  8.00000000E-01  8.00000000E-01  1.50000000E+00  8.00000000E-01
  8.00000000E-01  1.50000000E+00  8.00000000E-01  8.00000000E-01  1.50000000E+00
  8.00000000E-01  8.00000000E-01  1.50000000E+00  8.00000000E-01  8.00000000E-01
  1.50000000E+00  8.00000000E-01  8.00000000E-01  1.50000000E+00  8.00000000E-01
  8.00000000E-01  1.50000000E+00  8.00000000E-01  8.00000000E-01  1.50000000E+00
  8.00000000E-01  8.00000000E-01  1.50000000E+00  8.00000000E-01  8.00000000E-01
  1.50000000E+00  8.00000000E-01  8.00000000E-01  1.50000000E+00  8.00000000E-01
  8.00000000E-01  1.50000000E+00  8.00000000E-01  8.00000000E-01  1.50000000E+00
  8.00000000E-01  8.00000000E-01  1.50000000E+00  8.00000000E-01  8.00000000E-01
  1.50000000E+00  8.00000000E-01  8.00000000E-01  1.50000000E+00  8.00000000E-01
  8.00000000E-01  1.50000000E+00  8.00000000E-01  8.00000000E-01  1.50000000E+00
  8.00000000E-01  8.00000000E-01  1.50000000E+00  8.00000000E-01  8.00000000E-01
  1.50000000E+00  8.00000000E-01  8.00000000E-01  1.50000000E+00  8.00000000E-01
  8.00000000E-01  1.50000000E+00  8.00000000E-01  8.00000000E-01  1.50000000E+00
  8.00000000E-01  8.00000000E-01  1.50000000E+00  8.00000000E-01  8.00000000E-01
  1.50000000E+00  8.00000000E-01  8.00000000E-01  1.50000000E+00  8.00000000E-01
  8.00000000E-01  1.50000000E+00  8.00000000E-01  8.00000000E-01  1.50000000E+00
  8.00000000E-01  8.00000000E-01  1.50000000E+00  8.00000000E-01  8.00000000E-01
  1.50000000E+00  8.00000000E-01  8.00000000E-01  1.50000000E+00  8.00000000E-01
  8.00000000E-01  1.50000000E+00  8.00000000E-01  8.00000000E-01  1.50000000E+00
  8.00000000E-01  8.00000000E-01  1.50000000E+00  8.00000000E-01  8.00000000E-01
  1.50000000E+00  8.00000000E-01  8.00000000E-01  1.50000000E+00  8.00000000E-01
  8.00000000E-01  1.50000000E+00  8.00000000E-01  8.00000000E-01  1.50000000E+00
  8.00000000E-01  8.00000000E-01  1.50000000E+00  8.00000000E-01  8.00000000E-01
  1.50000000E+00  8.00000000E-01  8.00000000E-01  1.50000000E+00  8.00000000E-01
  8.00000000E-01  1.50000000E+00  8.00000000E-01  8.00000000E-01  1.50000000E+00
  8.00000000E-01  8.00000000E-01  1.50000000E+00  8.00000000E-01  8.00000000E-01
  1.50000000E+00  8.00000000E-01  8.00000000E-01  1.50000000E+00  8.00000000E-01
  8.00000000E-01  1.50000000E+00  8.00000000E-01  8.00000000E-01  1.50000000E+00
  8.00000000E-01  8.00000000E-01  1.50000000E+00  8.00000000E-01  8.00000000E-01
  1.50000000E+00  8.00000000E-01  8.00000000E-01  1.50000000E+00  8.00000000E-01
  8.00000000E-01  1.50000000E+00  8.00000000E-01  8.00000000E-01  1.50000000E+00
  8.00000000E-01  8.00000000E-01  1.50000000E+00  8.00000000E-01  8.00000000E-01
  1.50000000E+00  8.00000000E-01  8.00000000E-01  1.50000000E+00  8.00000000E-01
  8.00000000E-01  1.50000000E+00  8.00000000E-01  8.00000000E-01  1.50000000E+00
  8.00000000E-01  8.00000000E-01  1.50000000E+00  8.00000000E-01  8.00000000E-01
  1.50000000E+00  8.00000000E-01  8.00000000E-01  1.50000000E+00  8.00000000E-01
  8.00000000E-01  1.50000000E+00  8.00000000E-01  8.00000000E-01  1.50000000E+00
  8.00000000E-01  8.00000000E-01  1.50000000E+00  8.00000000E-01  8.00000000E-01
  1.50000000E+00  8.00000000E-01  8.00000000E-01  1.50000000E+00  8.00000000E-01
  8.00000000E-01  1.50000000E+00  8.00000000E-01  8.00000000E-01  1.50000000E+00
  8.00000000E-01  8.00000000E-01  1.50000000E+00  8.00000000E-01  8.00000000E-01
  1.50000000E+00  8.00000000E-01  8.00000000E-01  1.50000000E+00  8.00000000E-01
  8.00000000E-01  1.50000000E+00  8.00000000E-01  8.00000000E-01  1.50000000E+00
  8.00000000E-01  8.00000000E-01  1.50000000E+00  8.00000000E-01  8.00000000E-01
  1.50000000E+00  8.00000000E-01  8.00000000E-01  1.50000000E+00  8.00000000E-01
  8.00000000E-01  1.50000000E+00  8.00000000E-01  8.00000000E-01  1.50000000E+00
  8.00000000E-01  8.00000000E-01  1.50000000E+00  8.00000000E-01  8.00000000E-01
  1.50000000E+00  8.00000000E-01  8.00000000E-01  1.50000000E+00  8.00000000E-01
  8.00000000E-01  1.50000000E+00  8.00000000E-01  8.00000000E-01  1.50000000E+00
  8.00000000E-01  8.00000000E-01  1.50000000E+00  8.00000000E-01  8.00000000E-01
  1.50000000E+00  8.00000000E-01  8.00000000E-01  1.50000000E+00  8.00000000E-01
  8.00000000E-01  1.50000000E+00  8.00000000E-01  8.00000000E-01  1.50000000E+00
  8.00000000E-01  8.00000000E-01  1.50000000E+00  8.00000000E-01  8.00000000E-01
  1.50000000E+00  8.00000000E-01  8.00000000E-01  1.50000000E+00  8.00000000E-01
  8.00000000E-01  1.50000000E+00  8.00000000E-01  8.00000000E-01  1.50000000E+00
  8.00000000E-01  8.00000000E-01  1.50000000E+00  8.00000000E-01  8.00000000E-01
  1.50000000E+00  8.00000000E-01  8.00000000E-01  1.50000000E+00  8.00000000E-01
  8.00000000E-01  1.50000000E+00  8.00000000E-01  8.00000000E-01  1.50000000E+00
  8.00000000E-01  8.00000000E-01  1.50000000E+00  8.00000000E-01  8.00000000E-01
  1.50000000E+00  8.00000000E-01  8.00000000E-01  1.50000000E+00  8.00000000E-01
  8.00000000E-01  1.50000000E+00  8.00000000E-01  8.00000000E-01  1.50000000E+00
  8.00000000E-01  8.00000000E-01  1.50000000E+00  8.00000000E-01  8.00000000E-01
  1.50000000E+00  8.00000000E-01  8.00000000E-01  1.50000000E+00  8.00000000E-01
  8.00000000E-01  1.50000000E+00  8.00000000E-01  8.00000000E-01  1.50000000E+00
  8.00000000E-01  8.00000000E-01  1.50000000E+00  8.00000000E-01  8.00000000E-01
  1.50000000E+00  8.00000000E-01  8.00000000E-01  1.50000000E+00  8.00000000E-01
  8.00000000E-01  1.50000000E+00  8.00000000E-01  8.00000000E-01  1.50000000E+00
  8.00000000E-01  8.00000000E-01  1.50000000E+00  8.00000000E-01  8.00000000E-01
  1.50000000E+00  8.00000000E-01  8.00000000E-01  1.50000000E+00  8.00000000E-01
  8.00000000E-01  1.50000000E+00  8.00000000E-01  8.00000000E-01  1.50000000E+00
  8.00000000E-01  8.00000000E-01  1.50000000E+00  8.00000000E-01  8.00000000E-01
  1.50000000E+00  8.00000000E-01  8.00000000E-01  1.50000000E+00  8.00000000E-01
  8.00000000E-01  1.50000000E+00  8.00000000E-01  8.00000000E-01  1.50000000E+00
  8.00000000E-01  8.00000000E-01  1.50000000E+00  8.00000000E-01  8.00000000E-01
  1.50000000E+00  8.00000000E-01  8.00000000E-01  1.50000000E+00  8.00000000E-01
  8.00000000E-01  1.50000000E+00  8.00000000E-01  8.00000000E-01  1.50000000E+00
  8.00000000E-01  8.00000000E-01  1.50000000E+00  8.00000000E-01  8.00000000E-01
  1.50000000E+00  8.00000000E-01  8.00000000E-01  1.50000000E+00  8.00000000E-01
  8.00000000E-01  1.50000000E+00  8.00000000E-01  8.00000000E-01  1.50000000E+00
  8.00000000E-01  8.00000000E-01  1.50000000E+00  8.00000000E-01  8.00000000E-01
  1.50000000E+00  8.00000000E-01  8.00000000E-01  1.50000000E+00  8.00000000E-01
  8.00000000E-01  1.50000000E+00  8.00000000E-01  8.00000000E-01  1.50000000E+00
  8.00000000E-01  8.00000000E-01  1.50000000E+00  8.00000000E-01  8.00000000E-01
  1.50000000E+00  8.00000000E-01  8.00000000E-01  1.50000000E+00  8.00000000E-01
  8.00000000E-01  1.50000000E+00  8.00000000E-01  8.00000000E-01  1.50000000E+00
  8.00000000E-01  8.00000000E-01  1.50000000E+00  8.00000000E-01  8.00000000E-01
  1.50000000E+00  8.00000000E-01  8.00000000E-01  1.50000000E+00  8.00000000E-01
  8.00000000E-01  1.50000000E+00  8.00000000E-01  8.00000000E-01  1.50000000E+00
  8.00000000E-01  8.00000000E-01  1.50000000E+00  8.00000000E-01  8.00000000E-01
  1.50000000E+00  8.00000000E-01  8.00000000E-01  1.50000000E+00  8.00000000E-01
  8.00000000E-01  1.50000000E+00  8.00000000E-01  8.00000000E-01  1.50000000E+00
  8.00000000E-01  8.00000000E-01  1.50000000E+00  8.00000000E-01  8.00000000E-01
  1.50000000E+00  8.00000000E-01  8.00000000E-01  1.50000000E+00  8.00000000E-01
  8.00000000E-01  1.50000000E+00  8.00000000E-01  8.00000000E-01  1.50000000E+00
  8.00000000E-01  8.00000000E-01  1.50000000E+00  8.00000000E-01  8.00000000E-01
  1.50000000E+00  8.00000000E-01  8.00000000E-01  1.50000000E+00  8.00000000E-01
  8.00000000E-01  1.50000000E+00  8.00000000E-01  8.00000000E-01  1.50000000E+00
  8.00000000E-01  8.00000000E-01  1.50000000E+00  8.00000000E-01  8.00000000E-01
  1.50000000E+00  8.00000000E-01  8.00000000E-01  1.50000000E+00  8.00000000E-01
  8.00000000E-01  1.50000000E+00  8.00000000E-01  8.00000000E-01  1.50000000E+00
  8.00000000E-01  8.00000000E-01  1.50000000E+00  8.00000000E-01  8.00000000E-01
  1.50000000E+00  8.00000000E-01  8.00000000E-01  1.50000000E+00  8.00000000E-01
  8.00000000E-01  1.50000000E+00  8.00000000E-01  8.00000000E-01  1.50000000E+00
  8.00000000E-01  8.00000000E-01  1.50000000E+00  8.00000000E-01  8.00000000E-01
  1.50000000E+00  8.00000000E-01  8.00000000E-01  1.50000000E+00  8.00000000E-01
  8.00000000E-01  1.50000000E+00  8.00000000E-01  8.00000000E-01  1.50000000E+00
  8.00000000E-01  8.00000000E-01  1.50000000E+00  8.00000000E-01  8.00000000E-01
  1.50000000E+00  8.00000000E-01  8.00000000E-01  1.50000000E+00  8.00000000E-01
  8.00000000E-01  1.50000000E+00  8.00000000E-01  8.00000000E-01  1.50000000E+00
  8.00000000E-01  8.00000000E-01  1.50000000E+00  8.00000000E-01  8.00000000E-01
  1.50000000E+00  8.00000000E-01  8.00000000E-01  1.50000000E+00  8.00000000E-01
  8.00000000E-01  1.50000000E+00  8.00000000E-01  8.00000000E-01  1.50000000E+00
  8.00000000E-01  8.00000000E-01  1.50000000E+00  8.00000000E-01  8.00000000E-01
  1.50000000E+00  8.00000000E-01  8.00000000E-01  1.50000000E+00  8.00000000E-01
  8.00000000E-01  1.50000000E+00  8.00000000E-01  8.00000000E-01  1.50000000E+00
  8.00000000E-01  8.00000000E-01  1.50000000E+00  8.00000000E-01  8.00000000E-01
  1.50000000E+00  8.00000000E-01  8.00000000E-01  1.50000000E+00  8.00000000E-01
  8.00000000E-01  1.50000000E+00  8.00000000E-01  8.00000000E-01  1.50000000E+00
  8.00000000E-01  8.00000000E-01  1.50000000E+00  8.00000000E-01  8.00000000E-01
  1.50000000E+00  8.00000000E-01  8.00000000E-01  1.50000000E+00  8.00000000E-01
  8.00000000E-01  1.50000000E+00  8.00000000E-01  8.00000000E-01  1.50000000E+00
  8.00000000E-01  8.00000000E-01  1.50000000E+00  8.00000000E-01  8.00000000E-01
  1.50000000E+00  8.00000000E-01  8.00000000E-01  1.50000000E+00  8.00000000E-01
  8.00000000E-01  1.50000000E+00  8.00000000E-01  8.00000000E-01  1.50000000E+00
  8.00000000E-01  8.00000000E-01  1.50000000E+00  8.00000000E-01  8.00000000E-01
  1.50000000E+00  8.00000000E-01  8.00000000E-01  1.50000000E+00  8.00000000E-01
  8.00000000E-01  1.50000000E+00  8.00000000E-01  8.00000000E-01  1.50000000E+00
  8.00000000E-01  8.00000000E-01  1.50000000E+00  8.00000000E-01  8.00000000E-01
  1.50000000E+00  8.00000000E-01  8.00000000E-01  1.50000000E+00  8.00000000E-01
  8.00000000E-01  1.50000000E+00  8.00000000E-01  8.00000000E-01  1.50000000E+00
  8.00000000E-01  8.00000000E-01  1.50000000E+00  8.00000000E-01  8.00000000E-01
  1.50000000E+00  8.00000000E-01  8.00000000E-01  1.50000000E+00  8.00000000E-01
  8.00000000E-01  1.50000000E+00  8.00000000E-01  8.00000000E-01  1.50000000E+00
  8.00000000E-01  8.00000000E-01  1.50000000E+00  8.00000000E-01  8.00000000E-01
  1.50000000E+00  8.00000000E-01  8.00000000E-01  1.50000000E+00  8.00000000E-01
  8.00000000E-01  1.50000000E+00  8.00000000E-01  8.00000000E-01  1.50000000E+00
  8.00000000E-01  8.00000000E-01  1.50000000E+00  8.00000000E-01  8.00000000E-01
  1.50000000E+00  8.00000000E-01  8.00000000E-01  1.50000000E+00  8.00000000E-01
  8.00000000E-01  1.50000000E+00  8.00000000E-01  8.00000000E-01  1.50000000E+00
  8.00000000E-01  8.00000000E-01  1.50000000E+00  8.00000000E-01  8.00000000E-01
  1.50000000E+00  8.00000000E-01  8.00000000E-01  1.50000000E+00  8.00000000E-01
  8.00000000E-01  1.50000000E+00  8.00000000E-01  8.00000000E-01  1.50000000E+00
  8.00000000E-01  8.00000000E-01  1.50000000E+00  8.00000000E-01  8.00000000E-01
  1.50000000E+00  8.00000000E-01  8.00000000E-01  1.50000000E+00  8.00000000E-01
  8.00000000E-01  1.50000000E+00  8.00000000E-01  8.00000000E-01  1.50000000E+00
  8.00000000E-01  8.00000000E-01  1.50000000E+00  8.00000000E-01  8.00000000E-01
  1.50000000E+00  8.00000000E-01  8.00000000E-01  1.50000000E+00  8.00000000E-01
  8.00000000E-01  1.50000000E+00  8.00000000E-01  8.00000000E-01  1.50000000E+00
  8.00000000E-01  8.00000000E-01  1.50000000E+00  8.00000000E-01  8.00000000E-01
  1.50000000E+00  8.00000000E-01  8.00000000E-01  1.50000000E+00  8.00000000E-01
  8.00000000E-01  1.50000000E+00  8.00000000E-01  8.00000000E-01  1.50000000E+00
  8.00000000E-01  8.00000000E-01  1.50000000E+00  8.00000000E-01  8.00000000E-01
  1.50000000E+00  8.00000000E-01  8.00000000E-01  1.50000000E+00  8.00000000E-01
  8.00000000E-01  1.50000000E+00  8.00000000E-01  8.00000000E-01  1.50000000E+00
  8.00000000E-01  8.00000000E-01  1.50000000E+00  8.00000000E-01  8.00000000E-01
  1.50000000E+00  8.00000000E-01  8.00000000E-01  1.50000000E+00  8.00000000E-01
  8.00000000E-01  1.50000000E+00  8.00000000E-01  8.00000000E-01  1.50000000E+00
  8.00000000E-01  8.00000000E-01  1.50000000E+00  8.00000000E-01  8.00000000E-01
  1.50000000E+00  8.00000000E-01  8.00000000E-01  1.50000000E+00  8.00000000E-01
  8.00000000E-01  1.50000000E+00  8.00000000E-01  8.00000000E-01  1.50000000E+00
  8.00000000E-01  8.00000000E-01  1.50000000E+00  8.00000000E-01  8.00000000E-01
  1.50000000E+00  8.00000000E-01  8.00000000E-01  1.50000000E+00  8.00000000E-01
  8.00000000E-01  1.50000000E+00  8.00000000E-01  8.00000000E-01  1.50000000E+00
  8.00000000E-01  8.00000000E-01  1.50000000E+00  8.00000000E-01  8.00000000E-01
  1.50000000E+00  8.00000000E-01  8.00000000E-01  1.50000000E+00  8.00000000E-01
  8.00000000E-01  1.50000000E+00  8.00000000E-01  8.00000000E-01  1.50000000E+00
  8.00000000E-01  8.00000000E-01  1.50000000E+00  8.00000000E-01  8.00000000E-01
  1.50000000E+00  8.00000000E-01  8.00000000E-01  1.50000000E+00  8.00000000E-01
  8.00000000E-01  1.50000000E+00  8.00000000E-01  8.00000000E-01  1.50000000E+00
  8.00000000E-01  8.00000000E-01  1.50000000E+00  8.00000000E-01  8.00000000E-01
  1.50000000E+00  8.00000000E-01  8.00000000E-01  1.50000000E+00  8.00000000E-01
  8.00000000E-01  1.50000000E+00  8.00000000E-01  8.00000000E-01  1.50000000E+00
  8.00000000E-01  8.00000000E-01  1.50000000E+00  8.00000000E-01  8.00000000E-01
  1.50000000E+00  8.00000000E-01  8.00000000E-01  1.50000000E+00  8.00000000E-01
  8.00000000E-01  1.50000000E+00  8.00000000E-01  8.00000000E-01  1.50000000E+00
  8.00000000E-01  8.00000000E-01  1.50000000E+00  8.00000000E-01  8.00000000E-01
  1.50000000E+00  8.00000000E-01  8.00000000E-01  1.50000000E+00  8.00000000E-01
  8.00000000E-01  1.50000000E+00  8.00000000E-01  8.00000000E-01  1.50000000E+00
  8.00000000E-01  8.00000000E-01  1.50000000E+00  8.00000000E-01  8.00000000E-01
  1.50000000E+00  8.00000000E-01  8.00000000E-01  1.50000000E+00  8.00000000E-01
  8.00000000E-01  1.50000000E+00  8.00000000E-01  8.00000000E-01  1.50000000E+00
  8.00000000E-01  8.00000000E-01  1.50000000E+00  8.00000000E-01  8.00000000E-01
  1.50000000E+00  8.00000000E-01  8.00000000E-01  1.50000000E+00  8.00000000E-01
  8.00000000E-01  1.50000000E+00  8.00000000E-01  8.00000000E-01  1.50000000E+00
  8.00000000E-01  8.00000000E-01  1.50000000E+00  8.00000000E-01  8.00000000E-01
  1.50000000E+00  8.00000000E-01  8.00000000E-01  1.50000000E+00  8.00000000E-01
  8.00000000E-01  1.50000000E+00  8.00000000E-01  8.00000000E-01  1.50000000E+00
  8.00000000E-01  8.00000000E-01  1.50000000E+00  8.00000000E-01  8.00000000E-01
  1.50000000E+00  8.00000000E-01  8.00000000E-01  1.50000000E+00  8.00000000E-01
  8.00000000E-01  1.50000000E+00  8.00000000E-01  8.00000000E-01  1.50000000E+00
  8.00000000E-01  8.00000000E-01  1.50000000E+00  8.00000000E-01  8.00000000E-01
  1.50000000E+00  8.00000000E-01  8.00000000E-01  1.50000000E+00  8.00000000E-01
  8.00000000E-01  1.50000000E+00  8.00000000E-01  8.00000000E-01  1.50000000E+00
  8.00000000E-01  8.00000000E-01  1.50000000E+00  8.00000000E-01  8.00000000E-01
  1.50000000E+00  8.00000000E-01  8.00000000E-01  1.50000000E+00  8.00000000E-01
  8.00000000E-01  1.50000000E+00  8.00000000E-01  8.00000000E-01  1.50000000E+00
  8.00000000E-01  8.00000000E-01  1.50000000E+00  8.00000000E-01  8.00000000E-01
  1.50000000E+00  8.00000000E-01  8.00000000E-01  1.50000000E+00  8.00000000E-01
  8.00000000E-01  1.50000000E+00  8.00000000E-01  8.00000000E-01  1.50000000E+00
  8.00000000E-01  8.00000000E-01  1.50000000E+00  8.00000000E-01  8.00000000E-01
  1.50000000E+00  8.00000000E-01  8.00000000E-01  1.50000000E+00  8.00000000E-01
  8.00000000E-01  1.50000000E+00  8.00000000E-01  8.00000000E-01  1.50000000E+00
  8.00000000E-01  8.00000000E-01  1.50000000E+00  8.00000000E-01  8.00000000E-01
  1.50000000E+00  8.00000000E-01  8.00000000E-01  1.50000000E+00  8.00000000E-01
  8.00000000E-01  1.50000000E+00  8.00000000E-01  8.00000000E-01  1.50000000E+00
  8.00000000E-01  8.00000000E-01  1.50000000E+00  8.00000000E-01  8.00000000E-01
  1.50000000E+00  8.00000000E-01  8.00000000E-01  1.50000000E+00  8.00000000E-01
  8.00000000E-01  1.50000000E+00  8.00000000E-01  8.00000000E-01  1.50000000E+00
  8.00000000E-01  8.00000000E-01  1.50000000E+00  8.00000000E-01  8.00000000E-01
  1.50000000E+00  8.00000000E-01  8.00000000E-01  1.50000000E+00  8.00000000E-01
  8.00000000E-01  1.50000000E+00  8.00000000E-01  8.00000000E-01  1.50000000E+00
  8.00000000E-01  8.00000000E-01  1.50000000E+00  8.00000000E-01  8.00000000E-01
  1.50000000E+00  8.00000000E-01  8.00000000E-01  1.50000000E+00  8.00000000E-01
  8.00000000E-01  1.50000000E+00  8.00000000E-01  8.00000000E-01  1.50000000E+00
  8.00000000E-01  8.00000000E-01  1.50000000E+00  8.00000000E-01  8.00000000E-01
  1.50000000E+00  8.00000000E-01  8.00000000E-01  1.50000000E+00  8.00000000E-01
  8.00000000E-01  1.50000000E+00  8.00000000E-01  8.00000000E-01  1.50000000E+00
  8.00000000E-01  8.00000000E-01  1.50000000E+00  8.00000000E-01  8.00000000E-01
  1.50000000E+00  8.00000000E-01  8.00000000E-01  1.50000000E+00  8.00000000E-01
  8.00000000E-01  1.50000000E+00  8.00000000E-01  8.00000000E-01  1.50000000E+00
  8.00000000E-01  8.00000000E-01  1.50000000E+00  8.00000000E-01  8.00000000E-01
  1.50000000E+00  8.00000000E-01  8.00000000E-01  1.50000000E+00  8.00000000E-01
  8.00000000E-01  1.50000000E+00  8.00000000E-01  8.00000000E-01  1.50000000E+00
  8.00000000E-01  8.00000000E-01  1.50000000E+00  8.00000000E-01  8.00000000E-01
  1.50000000E+00  8.00000000E-01  8.00000000E-01  1.50000000E+00  8.00000000E-01
  8.00000000E-01  1.50000000E+00  8.00000000E-01  8.00000000E-01  1.50000000E+00
  8.00000000E-01  8.00000000E-01  1.50000000E+00  8.00000000E-01  8.00000000E-01
  1.50000000E+00  8.00000000E-01  8.00000000E-01  1.50000000E+00  8.00000000E-01
  8.00000000E-01  1.50000000E+00  8.00000000E-01  8.00000000E-01  1.50000000E+00
  8.00000000E-01  8.00000000E-01  1.50000000E+00  8.00000000E-01  8.00000000E-01
  1.50000000E+00  8.00000000E-01  8.00000000E-01  1.50000000E+00  8.00000000E-01
  8.00000000E-01  1.50000000E+00  8.00000000E-01  8.00000000E-01  1.50000000E+00
  8.00000000E-01  8.00000000E-01  1.50000000E+00  8.00000000E-01  8.00000000E-01
  1.50000000E+00  8.00000000E-01  8.00000000E-01  1.50000000E+00  8.00000000E-01
  8.00000000E-01  1.50000000E+00  8.00000000E-01  8.00000000E-01  1.50000000E+00
  8.00000000E-01  8.00000000E-01  1.50000000E+00  8.00000000E-01  8.00000000E-01
  1.50000000E+00  8.00000000E-01  8.00000000E-01  1.50000000E+00  8.00000000E-01
  8.00000000E-01  1.50000000E+00  8.00000000E-01  8.00000000E-01  1.50000000E+00
  8.00000000E-01  8.00000000E-01  1.50000000E+00  8.00000000E-01  8.00000000E-01
  1.50000000E+00  8.00000000E-01  8.00000000E-01  1.50000000E+00  8.00000000E-01
  8.00000000E-01  1.50000000E+00  8.00000000E-01  8.00000000E-01  1.50000000E+00
  8.00000000E-01  8.00000000E-01  1.50000000E+00  8.00000000E-01  8.00000000E-01
  1.50000000E+00  8.00000000E-01  8.00000000E-01  1.50000000E+00  8.00000000E-01
  8.00000000E-01  1.50000000E+00  8.00000000E-01  8.00000000E-01  1.50000000E+00
  8.00000000E-01  8.00000000E-01  1.50000000E+00  8.00000000E-01  8.00000000E-01
  1.50000000E+00  8.00000000E-01  8.00000000E-01  1.50000000E+00  8.00000000E-01
  8.00000000E-01  1.50000000E+00  8.00000000E-01  8.00000000E-01  1.50000000E+00
  8.00000000E-01  8.00000000E-01  1.50000000E+00  8.00000000E-01  8.00000000E-01
  1.50000000E+00  8.00000000E-01  8.00000000E-01  1.50000000E+00  8.00000000E-01
  8.00000000E-01  1.50000000E+00  8.00000000E-01  8.00000000E-01  1.50000000E+00
  8.00000000E-01  8.00000000E-01  1.50000000E+00  8.00000000E-01  8.00000000E-01
  1.50000000E+00  8.00000000E-01  8.00000000E-01  1.50000000E+00  8.00000000E-01
  8.00000000E-01  1.50000000E+00  8.00000000E-01  8.00000000E-01  1.50000000E+00
  8.00000000E-01  8.00000000E-01  1.50000000E+00  8.00000000E-01  8.00000000E-01
  1.50000000E+00  8.00000000E-01  8.00000000E-01  1.50000000E+00  8.00000000E-01
  8.00000000E-01  1.50000000E+00  8.00000000E-01  8.00000000E-01  1.50000000E+00
  8.00000000E-01  8.00000000E-01  1.50000000E+00  8.00000000E-01  8.00000000E-01
  1.50000000E+00  8.00000000E-01  8.00000000E-01  1.50000000E+00  8.00000000E-01
  8.00000000E-01  1.50000000E+00  8.00000000E-01  8.00000000E-01  1.50000000E+00
  8.00000000E-01  8.00000000E-01  1.50000000E+00  8.00000000E-01  8.00000000E-01
  1.50000000E+00  8.00000000E-01  8.00000000E-01  1.50000000E+00  8.00000000E-01
  8.00000000E-01  1.50000000E+00  8.00000000E-01  8.00000000E-01  1.50000000E+00
  8.00000000E-01  8.00000000E-01  1.50000000E+00  8.00000000E-01  8.00000000E-01
  1.50000000E+00  8.00000000E-01  8.00000000E-01  1.50000000E+00  8.00000000E-01
  8.00000000E-01  1.50000000E+00  8.00000000E-01  8.00000000E-01  1.50000000E+00
  8.00000000E-01  8.00000000E-01  1.50000000E+00  8.00000000E-01  8.00000000E-01
  1.50000000E+00  8.00000000E-01  8.00000000E-01  1.50000000E+00  8.00000000E-01
  8.00000000E-01  1.50000000E+00  8.00000000E-01  8.00000000E-01  1.50000000E+00
  8.00000000E-01  8.00000000E-01  1.50000000E+00  8.00000000E-01  8.00000000E-01
  1.50000000E+00  8.00000000E-01  8.00000000E-01  1.50000000E+00  8.00000000E-01
  8.00000000E-01  1.50000000E+00  8.00000000E-01  8.00000000E-01  1.50000000E+00
  8.00000000E-01  8.00000000E-01  1.50000000E+00  8.00000000E-01  8.00000000E-01
  1.50000000E+00  8.00000000E-01  8.00000000E-01  1.50000000E+00  8.00000000E-01
  8.00000000E-01  1.50000000E+00  8.00000000E-01  8.00000000E-01  1.50000000E+00
  8.00000000E-01  8.00000000E-01  1.50000000E+00  8.00000000E-01  8.00000000E-01
  1.50000000E+00  8.00000000E-01  8.00000000E-01  1.50000000E+00  8.00000000E-01
  8.00000000E-01  1.50000000E+00  8.00000000E-01  8.00000000E-01  1.50000000E+00
  8.00000000E-01  8.00000000E-01  1.50000000E+00  8.00000000E-01  8.00000000E-01
  1.50000000E+00  8.00000000E-01  8.00000000E-01  1.50000000E+00  8.00000000E-01
  8.00000000E-01  1.50000000E+00  8.00000000E-01  8.00000000E-01  1.50000000E+00
  8.00000000E-01  8.00000000E-01  1.50000000E+00  8.00000000E-01  8.00000000E-01
  1.50000000E+00  8.00000000E-01  8.00000000E-01  1.50000000E+00  8.00000000E-01
  8.00000000E-01  1.50000000E+00  8.00000000E-01  8.00000000E-01  1.50000000E+00
  8.00000000E-01  8.00000000E-01  1.50000000E+00  8.00000000E-01  8.00000000E-01
  1.50000000E+00  8.00000000E-01  8.00000000E-01  1.50000000E+00  8.00000000E-01
  8.00000000E-01  1.50000000E+00  8.00000000E-01  8.00000000E-01  1.50000000E+00
  8.00000000E-01  8.00000000E-01  1.50000000E+00  8.00000000E-01  8.00000000E-01
  1.50000000E+00  8.00000000E-01  8.00000000E-01  1.50000000E+00  8.00000000E-01
  8.00000000E-01  1.50000000E+00  8.00000000E-01  8.00000000E-01  1.50000000E+00
  8.00000000E-01  8.00000000E-01  1.50000000E+00  8.00000000E-01  8.00000000E-01
  1.50000000E+00  8.00000000E-01  8.00000000E-01  1.50000000E+00  8.00000000E-01
  8.00000000E-01  1.50000000E+00  8.00000000E-01  8.00000000E-01  1.50000000E+00
  8.00000000E-01  8.00000000E-01  1.50000000E+00  8.00000000E-01  8.00000000E-01
  1.50000000E+00  8.00000000E-01  8.00000000E-01  1.50000000E+00  8.00000000E-01
  8.00000000E-01  1.50000000E+00  8.00000000E-01  8.00000000E-01  1.50000000E+00
  8.00000000E-01  8.00000000E-01  1.50000000E+00  8.00000000E-01  8.00000000E-01
  1.50000000E+00  8.00000000E-01  8.00000000E-01  1.50000000E+00  8.00000000E-01
  8.00000000E-01  1.50000000E+00  8.00000000E-01  8.00000000E-01  1.50000000E+00
  8.00000000E-01  8.00000000E-01  1.50000000E+00  8.00000000E-01  8.00000000E-01
  1.50000000E+00  8.00000000E-01  8.00000000E-01  1.50000000E+00  8.00000000E-01
  8.00000000E-01  1.50000000E+00  8.00000000E-01  8.00000000E-01  1.50000000E+00
  8.00000000E-01  8.00000000E-01  1.50000000E+00  8.00000000E-01  8.00000000E-01
  1.50000000E+00  8.00000000E-01  8.00000000E-01  1.50000000E+00  8.00000000E-01
  8.00000000E-01  1.50000000E+00  8.00000000E-01  8.00000000E-01  1.50000000E+00
  8.00000000E-01  8.00000000E-01  1.50000000E+00  8.00000000E-01  8.00000000E-01
  1.50000000E+00  8.00000000E-01  8.00000000E-01  1.50000000E+00  8.00000000E-01
  8.00000000E-01  1.50000000E+00  8.00000000E-01  8.00000000E-01  1.50000000E+00
  8.00000000E-01  8.00000000E-01  1.50000000E+00  8.00000000E-01  8.00000000E-01
  1.50000000E+00  8.00000000E-01  8.00000000E-01  1.50000000E+00  8.00000000E-01
  8.00000000E-01  1.50000000E+00  8.00000000E-01  8.00000000E-01  1.50000000E+00
  8.00000000E-01  8.00000000E-01  1.50000000E+00  8.00000000E-01  8.00000000E-01
  1.50000000E+00  8.00000000E-01  8.00000000E-01  1.50000000E+00  8.00000000E-01
  8.00000000E-01  1.50000000E+00  8.00000000E-01  8.00000000E-01  1.50000000E+00
  8.00000000E-01  8.00000000E-01  1.50000000E+00  8.00000000E-01  8.00000000E-01
  1.50000000E+00  8.00000000E-01  8.00000000E-01  1.50000000E+00  8.00000000E-01
  8.00000000E-01  1.50000000E+00  8.00000000E-01  8.00000000E-01  1.50000000E+00
  8.00000000E-01  8.00000000E-01  1.50000000E+00  8.00000000E-01  8.00000000E-01
  1.50000000E+00  8.00000000E-01  8.00000000E-01  1.50000000E+00  8.00000000E-01
  8.00000000E-01  1.50000000E+00  8.00000000E-01  8.00000000E-01  1.50000000E+00
  8.00000000E-01  8.00000000E-01  1.50000000E+00  8.00000000E-01  8.00000000E-01
  1.50000000E+00  8.00000000E-01  8.00000000E-01  1.50000000E+00  8.00000000E-01
  8.00000000E-01  1.50000000E+00  8.00000000E-01  8.00000000E-01  1.50000000E+00
  8.00000000E-01  8.00000000E-01  1.50000000E+00  8.00000000E-01  8.00000000E-01
  1.50000000E+00  8.00000000E-01  8.00000000E-01  1.50000000E+00  8.00000000E-01
  8.00000000E-01  1.50000000E+00  8.00000000E-01  8.00000000E-01  1.50000000E+00
  8.00000000E-01  8.00000000E-01  1.50000000E+00  8.00000000E-01  8.00000000E-01
  1.50000000E+00  8.00000000E-01  8.00000000E-01  1.50000000E+00  8.00000000E-01
  8.00000000E-01  1.50000000E+00  8.00000000E-01  8.00000000E-01  1.50000000E+00
  8.00000000E-01  8.00000000E-01  1.50000000E+00  8.00000000E-01  8.00000000E-01
  1.50000000E+00  8.00000000E-01  8.00000000E-01  1.50000000E+00  8.00000000E-01
  8.00000000E-01  1.50000000E+00  8.00000000E-01  8.00000000E-01  1.50000000E+00
  8.00000000E-01  8.00000000E-01  1.50000000E+00  8.00000000E-01  8.00000000E-01
  1.50000000E+00  8.00000000E-01  8.00000000E-01  1.50000000E+00  8.00000000E-01
  8.00000000E-01  1.50000000E+00  8.00000000E-01  8.00000000E-01  1.50000000E+00
  8.00000000E-01  8.00000000E-01  1.50000000E+00  8.00000000E-01  8.00000000E-01
  1.50000000E+00  8.00000000E-01  8.00000000E-01  1.50000000E+00  8.00000000E-01
  8.00000000E-01  1.50000000E+00  8.00000000E-01  8.00000000E-01  1.50000000E+00
  8.00000000E-01  8.00000000E-01  1.50000000E+00  8.00000000E-01  8.00000000E-01
  1.50000000E+00  8.00000000E-01  8.00000000E-01  1.50000000E+00  8.00000000E-01
  8.00000000E-01  1.50000000E+00  8.00000000E-01  8.00000000E-01  1.50000000E+00
  8.00000000E-01  8.00000000E-01  1.50000000E+00  8.00000000E-01  8.00000000E-01
  1.50000000E+00  8.00000000E-01  8.00000000E-01  1.50000000E+00  8.00000000E-01
  8.00000000E-01  1.50000000E+00  8.00000000E-01  8.00000000E-01  1.50000000E+00
  8.00000000E-01  8.00000000E-01  1.50000000E+00  8.00000000E-01  8.00000000E-01
  1.50000000E+00  8.00000000E-01  8.00000000E-01  1.50000000E+00  8.00000000E-01
  8.00000000E-01  1.50000000E+00  8.00000000E-01  8.00000000E-01  1.50000000E+00
  8.00000000E-01  8.00000000E-01  1.50000000E+00  8.00000000E-01  8.00000000E-01
  1.50000000E+00  8.00000000E-01  8.00000000E-01  1.50000000E+00  8.00000000E-01
  8.00000000E-01  1.50000000E+00  8.00000000E-01  8.00000000E-01  1.50000000E+00
  8.00000000E-01  8.00000000E-01  1.50000000E+00  8.00000000E-01  8.00000000E-01
  1.50000000E+00  8.00000000E-01  8.00000000E-01  1.50000000E+00  8.00000000E-01
  8.00000000E-01  1.50000000E+00  8.00000000E-01  8.00000000E-01  1.50000000E+00
  8.00000000E-01  8.00000000E-01  1.50000000E+00  8.00000000E-01  8.00000000E-01
  1.50000000E+00  8.00000000E-01  8.00000000E-01  1.50000000E+00  8.00000000E-01
  8.00000000E-01  1.50000000E+00  8.00000000E-01  8.00000000E-01  1.50000000E+00
  8.00000000E-01  8.00000000E-01  1.50000000E+00  8.00000000E-01  8.00000000E-01
  1.50000000E+00  8.00000000E-01  8.00000000E-01  1.50000000E+00  8.00000000E-01
  8.00000000E-01  1.50000000E+00  8.00000000E-01  8.00000000E-01  1.50000000E+00
  8.00000000E-01  8.00000000E-01  1.50000000E+00  8.00000000E-01  8.00000000E-01
  1.50000000E+00  8.00000000E-01  8.00000000E-01  1.50000000E+00  8.00000000E-01
  8.00000000E-01  1.50000000E+00  8.00000000E-01  8.00000000E-01  1.50000000E+00
  8.00000000E-01  8.00000000E-01  1.50000000E+00  8.00000000E-01  8.00000000E-01
  1.50000000E+00  8.00000000E-01  8.00000000E-01  1.50000000E+00  8.00000000E-01
  8.00000000E-01  1.50000000E+00  8.00000000E-01  8.00000000E-01  1.50000000E+00
  8.00000000E-01  8.00000000E-01  1.50000000E+00  8.00000000E-01  8.00000000E-01
  1.50000000E+00  8.00000000E-01  8.00000000E-01  1.50000000E+00  8.00000000E-01
  8.00000000E-01  1.50000000E+00  8.00000000E-01  8.00000000E-01  1.50000000E+00
  8.00000000E-01  8.00000000E-01  1.50000000E+00  8.00000000E-01  8.00000000E-01
  1.50000000E+00  8.00000000E-01  8.00000000E-01  1.50000000E+00  8.00000000E-01
  8.00000000E-01  1.50000000E+00  8.00000000E-01  8.00000000E-01  1.50000000E+00
  8.00000000E-01  8.00000000E-01  1.50000000E+00  8.00000000E-01  8.00000000E-01
  1.50000000E+00  8.00000000E-01  8.00000000E-01  1.50000000E+00  8.00000000E-01
  8.00000000E-01  1.50000000E+00  8.00000000E-01  8.00000000E-01  1.50000000E+00
  8.00000000E-01  8.00000000E-01  1.50000000E+00  8.00000000E-01  8.00000000E-01
  1.50000000E+00  8.00000000E-01  8.00000000E-01  1.50000000E+00  8.00000000E-01
  8.00000000E-01  1.50000000E+00  8.00000000E-01  8.00000000E-01  1.50000000E+00
  8.00000000E-01  8.00000000E-01  1.50000000E+00  8.00000000E-01  8.00000000E-01
  1.50000000E+00  8.00000000E-01  8.00000000E-01  1.50000000E+00  8.00000000E-01
  8.00000000E-01  1.50000000E+00  8.00000000E-01  8.00000000E-01  1.50000000E+00
  8.00000000E-01  8.00000000E-01  1.50000000E+00  8.00000000E-01  8.00000000E-01
  1.50000000E+00  8.00000000E-01  8.00000000E-01  1.50000000E+00  8.00000000E-01
  8.00000000E-01  1.50000000E+00  8.00000000E-01  8.00000000E-01  1.50000000E+00
  8.00000000E-01  8.00000000E-01  1.50000000E+00  8.00000000E-01  8.00000000E-01
  1.50000000E+00  8.00000000E-01  8.00000000E-01  1.50000000E+00  8.00000000E-01
  8.00000000E-01  1.50000000E+00  8.00000000E-01  8.00000000E-01  1.50000000E+00
  8.00000000E-01  8.00000000E-01  1.50000000E+00  8.00000000E-01  8.00000000E-01
  1.50000000E+00  8.00000000E-01  8.00000000E-01  1.50000000E+00  8.00000000E-01
  8.00000000E-01  1.50000000E+00  8.00000000E-01  8.00000000E-01  1.50000000E+00
  8.00000000E-01  8.00000000E-01  1.50000000E+00  8.00000000E-01  8.00000000E-01
  1.50000000E+00  8.00000000E-01  8.00000000E-01  1.50000000E+00  8.00000000E-01
  8.00000000E-01  1.50000000E+00  8.00000000E-01  8.00000000E-01  1.50000000E+00
  8.00000000E-01  8.00000000E-01  1.50000000E+00  8.00000000E-01  8.00000000E-01
  1.50000000E+00  8.00000000E-01  8.00000000E-01  1.50000000E+00  8.00000000E-01
  8.00000000E-01  1.50000000E+00  8.00000000E-01  8.00000000E-01  1.50000000E+00
  8.00000000E-01  8.00000000E-01  1.50000000E+00  8.00000000E-01  8.00000000E-01
  1.50000000E+00  8.00000000E-01  8.00000000E-01  1.50000000E+00  8.00000000E-01
  8.00000000E-01  1.50000000E+00  8.00000000E-01  8.00000000E-01  1.50000000E+00
  8.00000000E-01  8.00000000E-01  1.50000000E+00  8.00000000E-01  8.00000000E-01
  1.50000000E+00  8.00000000E-01  8.00000000E-01  1.50000000E+00  8.00000000E-01
  8.00000000E-01  1.50000000E+00  8.00000000E-01  8.00000000E-01  1.50000000E+00
  8.00000000E-01  8.00000000E-01  1.50000000E+00  8.00000000E-01  8.00000000E-01
  1.50000000E+00  8.00000000E-01  8.00000000E-01  1.50000000E+00  8.00000000E-01
  8.00000000E-01  1.50000000E+00  8.00000000E-01  8.00000000E-01  1.50000000E+00
  8.00000000E-01  8.00000000E-01  1.50000000E+00  8.00000000E-01  8.00000000E-01
  1.50000000E+00  8.00000000E-01  8.00000000E-01  1.50000000E+00  8.00000000E-01
  8.00000000E-01  1.50000000E+00  8.00000000E-01  8.00000000E-01  1.50000000E+00
  8.00000000E-01  8.00000000E-01  1.50000000E+00  8.00000000E-01  8.00000000E-01
  1.50000000E+00  8.00000000E-01  8.00000000E-01  1.50000000E+00  8.00000000E-01
  8.00000000E-01  1.50000000E+00  8.00000000E-01  8.00000000E-01  1.50000000E+00
  8.00000000E-01  8.00000000E-01  1.50000000E+00  8.00000000E-01  8.00000000E-01
  1.50000000E+00  8.00000000E-01  8.00000000E-01  1.50000000E+00  8.00000000E-01
  8.00000000E-01  1.50000000E+00  8.00000000E-01  8.00000000E-01  1.50000000E+00
  8.00000000E-01  8.00000000E-01  1.50000000E+00  8.00000000E-01  8.00000000E-01
  1.50000000E+00  8.00000000E-01  8.00000000E-01  1.50000000E+00  8.00000000E-01
  8.00000000E-01  1.50000000E+00  8.00000000E-01  8.00000000E-01  1.50000000E+00
  8.00000000E-01  8.00000000E-01  1.50000000E+00  8.00000000E-01  8.00000000E-01
  1.50000000E+00  8.00000000E-01  8.00000000E-01  1.50000000E+00  8.00000000E-01
  8.00000000E-01  1.50000000E+00  8.00000000E-01  8.00000000E-01  1.50000000E+00
  8.00000000E-01  8.00000000E-01  1.50000000E+00  8.00000000E-01  8.00000000E-01
  1.50000000E+00  8.00000000E-01  8.00000000E-01  1.50000000E+00  8.00000000E-01
  8.00000000E-01  1.50000000E+00  8.00000000E-01  8.00000000E-01  1.50000000E+00
  8.00000000E-01  8.00000000E-01  1.50000000E+00  8.00000000E-01  8.00000000E-01
  1.50000000E+00  8.00000000E-01  8.00000000E-01  1.50000000E+00  8.00000000E-01
  8.00000000E-01  1.50000000E+00  8.00000000E-01  8.00000000E-01  1.50000000E+00
  8.00000000E-01  8.00000000E-01  1.50000000E+00  8.00000000E-01  8.00000000E-01
  1.50000000E+00  8.00000000E-01  8.00000000E-01  1.50000000E+00  8.00000000E-01
  8.00000000E-01  1.50000000E+00  8.00000000E-01  8.00000000E-01  1.50000000E+00
  8.00000000E-01  8.00000000E-01  1.50000000E+00  8.00000000E-01  8.00000000E-01
  1.50000000E+00  8.00000000E-01  8.00000000E-01  1.50000000E+00  8.00000000E-01
  8.00000000E-01  1.50000000E+00  8.00000000E-01  8.00000000E-01  1.50000000E+00
  8.00000000E-01  8.00000000E-01  1.50000000E+00  8.00000000E-01  8.00000000E-01
  1.50000000E+00  8.00000000E-01  8.00000000E-01  1.50000000E+00  8.00000000E-01
  8.00000000E-01  1.50000000E+00  8.00000000E-01  8.00000000E-01  1.50000000E+00
  8.00000000E-01  8.00000000E-01  1.50000000E+00  8.00000000E-01  8.00000000E-01
  1.50000000E+00  8.00000000E-01  8.00000000E-01  1.50000000E+00  8.00000000E-01
  8.00000000E-01  1.50000000E+00  8.00000000E-01  8.00000000E-01  1.50000000E+00
  8.00000000E-01  8.00000000E-01  1.50000000E+00  8.00000000E-01  8.00000000E-01
  1.50000000E+00  8.00000000E-01  8.00000000E-01  1.50000000E+00  8.00000000E-01
  8.00000000E-01  1.50000000E+00  8.00000000E-01  8.00000000E-01  1.50000000E+00
  8.00000000E-01  8.00000000E-01  1.50000000E+00  8.00000000E-01  8.00000000E-01
  1.50000000E+00  8.00000000E-01  8.00000000E-01  1.50000000E+00  8.00000000E-01
  8.00000000E-01  1.50000000E+00  8.00000000E-01  8.00000000E-01  1.50000000E+00
  8.00000000E-01  8.00000000E-01  1.50000000E+00  8.00000000E-01  8.00000000E-01
  1.50000000E+00  8.00000000E-01  8.00000000E-01  1.50000000E+00  8.00000000E-01
  8.00000000E-01  1.50000000E+00  8.00000000E-01  8.00000000E-01  1.50000000E+00
  8.00000000E-01  8.00000000E-01  1.50000000E+00  8.00000000E-01  8.00000000E-01
  1.50000000E+00  8.00000000E-01  8.00000000E-01  1.50000000E+00  8.00000000E-01
  8.00000000E-01  1.50000000E+00  8.00000000E-01  8.00000000E-01  1.50000000E+00
  8.00000000E-01  8.00000000E-01  1.50000000E+00  8.00000000E-01  8.00000000E-01
  1.50000000E+00  8.00000000E-01  8.00000000E-01  1.50000000E+00  8.00000000E-01
  8.00000000E-01  1.50000000E+00  8.00000000E-01  8.00000000E-01  1.50000000E+00
  8.00000000E-01  8.00000000E-01  1.50000000E+00  8.00000000E-01  8.00000000E-01
  1.50000000E+00  8.00000000E-01  8.00000000E-01  1.50000000E+00  8.00000000E-01
  8.00000000E-01  1.50000000E+00  8.00000000E-01  8.00000000E-01  1.50000000E+00
  8.00000000E-01  8.00000000E-01  1.50000000E+00  8.00000000E-01  8.00000000E-01
  1.50000000E+00  8.00000000E-01  8.00000000E-01  1.50000000E+00  8.00000000E-01
  8.00000000E-01  1.50000000E+00  8.00000000E-01  8.00000000E-01  1.50000000E+00
  8.00000000E-01  8.00000000E-01  1.50000000E+00  8.00000000E-01  8.00000000E-01
  1.50000000E+00  8.00000000E-01  8.00000000E-01  1.50000000E+00  8.00000000E-01
  8.00000000E-01  1.50000000E+00  8.00000000E-01  8.00000000E-01  1.50000000E+00
  8.00000000E-01  8.00000000E-01  1.50000000E+00  8.00000000E-01  8.00000000E-01
  1.50000000E+00  8.00000000E-01  8.00000000E-01  1.50000000E+00  8.00000000E-01
  8.00000000E-01  1.50000000E+00  8.00000000E-01  8.00000000E-01  1.50000000E+00
  8.00000000E-01  8.00000000E-01  1.50000000E+00  8.00000000E-01  8.00000000E-01
  1.50000000E+00  8.00000000E-01  8.00000000E-01  1.50000000E+00  8.00000000E-01
  8.00000000E-01  1.50000000E+00  8.00000000E-01  8.00000000E-01  1.50000000E+00
  8.00000000E-01  8.00000000E-01  1.50000000E+00  8.00000000E-01  8.00000000E-01
  1.50000000E+00  8.00000000E-01  8.00000000E-01  1.50000000E+00  8.00000000E-01
  8.00000000E-01  1.50000000E+00  8.00000000E-01  8.00000000E-01  1.50000000E+00
  8.00000000E-01  8.00000000E-01  1.50000000E+00  8.00000000E-01  8.00000000E-01
  1.50000000E+00  8.00000000E-01  8.00000000E-01  1.50000000E+00  8.00000000E-01
  8.00000000E-01  1.50000000E+00  8.00000000E-01  8.00000000E-01  1.50000000E+00
  8.00000000E-01  8.00000000E-01  1.50000000E+00  8.00000000E-01  8.00000000E-01
  1.50000000E+00  8.00000000E-01  8.00000000E-01  1.50000000E+00  8.00000000E-01
  8.00000000E-01  1.50000000E+00  8.00000000E-01  8.00000000E-01  1.50000000E+00
  8.00000000E-01  8.00000000E-01  1.50000000E+00  8.00000000E-01  8.00000000E-01
  1.50000000E+00  8.00000000E-01  8.00000000E-01  1.50000000E+00  8.00000000E-01
  8.00000000E-01  1.50000000E+00  8.00000000E-01  8.00000000E-01  1.50000000E+00
  8.00000000E-01  8.00000000E-01  1.50000000E+00  8.00000000E-01  8.00000000E-01
  1.50000000E+00  8.00000000E-01  8.00000000E-01  1.50000000E+00  8.00000000E-01
  8.00000000E-01  1.50000000E+00  8.00000000E-01  8.00000000E-01  1.50000000E+00
  8.00000000E-01  8.00000000E-01  1.50000000E+00  8.00000000E-01  8.00000000E-01
  1.50000000E+00  8.00000000E-01  8.00000000E-01  1.50000000E+00  8.00000000E-01
  8.00000000E-01  1.50000000E+00  8.00000000E-01  8.00000000E-01  1.50000000E+00
  8.00000000E-01  8.00000000E-01  1.50000000E+00  8.00000000E-01  8.00000000E-01
  1.50000000E+00  8.00000000E-01  8.00000000E-01  1.50000000E+00  8.00000000E-01
  8.00000000E-01  1.50000000E+00  8.00000000E-01  8.00000000E-01  1.50000000E+00
  8.00000000E-01  8.00000000E-01  1.50000000E+00  8.00000000E-01  8.00000000E-01
  1.50000000E+00  8.00000000E-01  8.00000000E-01  1.50000000E+00  8.00000000E-01
  8.00000000E-01  1.50000000E+00  8.00000000E-01  8.00000000E-01  1.50000000E+00
  8.00000000E-01  8.00000000E-01  1.50000000E+00  8.00000000E-01  8.00000000E-01
  1.50000000E+00  8.00000000E-01  8.00000000E-01  1.50000000E+00  8.00000000E-01
  8.00000000E-01  1.50000000E+00  8.00000000E-01  8.00000000E-01  1.50000000E+00
  8.00000000E-01  8.00000000E-01  1.50000000E+00  8.00000000E-01  8.00000000E-01
  1.50000000E+00  8.00000000E-01  8.00000000E-01  1.50000000E+00  8.00000000E-01
  8.00000000E-01  1.50000000E+00  8.00000000E-01  8.00000000E-01  1.50000000E+00
  8.00000000E-01  8.00000000E-01  1.50000000E+00  8.00000000E-01  8.00000000E-01
  1.50000000E+00  8.00000000E-01  8.00000000E-01  1.50000000E+00  8.00000000E-01
  8.00000000E-01  1.50000000E+00  8.00000000E-01  8.00000000E-01  1.50000000E+00
  8.00000000E-01  8.00000000E-01  1.50000000E+00  8.00000000E-01  8.00000000E-01
  1.50000000E+00  8.00000000E-01  8.00000000E-01  1.50000000E+00  8.00000000E-01
  8.00000000E-01  1.50000000E+00  8.00000000E-01  8.00000000E-01  1.50000000E+00
  8.00000000E-01  8.00000000E-01  1.50000000E+00  8.00000000E-01  8.00000000E-01
  1.50000000E+00  8.00000000E-01  8.00000000E-01  1.50000000E+00  8.00000000E-01
  8.00000000E-01  1.50000000E+00  8.00000000E-01  8.00000000E-01  1.50000000E+00
  8.00000000E-01  8.00000000E-01  1.50000000E+00  8.00000000E-01  8.00000000E-01
  1.50000000E+00  8.00000000E-01  8.00000000E-01  1.50000000E+00  8.00000000E-01
  8.00000000E-01  1.50000000E+00  8.00000000E-01  8.00000000E-01  1.50000000E+00
  8.00000000E-01  8.00000000E-01  1.50000000E+00  8.00000000E-01  8.00000000E-01
  1.50000000E+00  8.00000000E-01  8.00000000E-01  1.50000000E+00  8.00000000E-01
  8.00000000E-01  1.50000000E+00  8.00000000E-01  8.00000000E-01  1.50000000E+00
  8.00000000E-01  8.00000000E-01  1.50000000E+00  8.00000000E-01  8.00000000E-01
  1.50000000E+00  8.00000000E-01  8.00000000E-01  1.50000000E+00  8.00000000E-01
  8.00000000E-01  1.50000000E+00  8.00000000E-01  8.00000000E-01  1.50000000E+00
  8.00000000E-01  8.00000000E-01  1.50000000E+00  8.00000000E-01  8.00000000E-01
  1.50000000E+00  8.00000000E-01  8.00000000E-01  1.50000000E+00  8.00000000E-01
  8.00000000E-01  1.50000000E+00  8.00000000E-01  8.00000000E-01  1.50000000E+00
  8.00000000E-01  8.00000000E-01  1.50000000E+00  8.00000000E-01  8.00000000E-01
  1.50000000E+00  8.00000000E-01  8.00000000E-01  1.50000000E+00  8.00000000E-01
  8.00000000E-01  1.50000000E+00  8.00000000E-01  8.00000000E-01  1.50000000E+00
  8.00000000E-01  8.00000000E-01  1.50000000E+00  8.00000000E-01  8.00000000E-01
  1.50000000E+00  8.00000000E-01  8.00000000E-01  1.50000000E+00  8.00000000E-01
  8.00000000E-01  1.50000000E+00  8.00000000E-01  8.00000000E-01  1.50000000E+00
  8.00000000E-01  8.00000000E-01  1.50000000E+00  8.00000000E-01  8.00000000E-01
  1.50000000E+00  8.00000000E-01  8.00000000E-01  1.50000000E+00  8.00000000E-01
  8.00000000E-01  1.50000000E+00  8.00000000E-01  8.00000000E-01  1.50000000E+00
  8.00000000E-01  8.00000000E-01  1.50000000E+00  8.00000000E-01  8.00000000E-01
  1.50000000E+00  8.00000000E-01  8.00000000E-01  1.50000000E+00  8.00000000E-01
  8.00000000E-01  1.50000000E+00  8.00000000E-01  8.00000000E-01  1.50000000E+00
  8.00000000E-01  8.00000000E-01  1.50000000E+00  8.00000000E-01  8.00000000E-01
  1.50000000E+00  8.00000000E-01  8.00000000E-01  1.50000000E+00  8.00000000E-01
  8.00000000E-01  1.50000000E+00  8.00000000E-01  8.00000000E-01  1.50000000E+00
  8.00000000E-01  8.00000000E-01  1.50000000E+00  8.00000000E-01  8.00000000E-01
  1.50000000E+00  8.00000000E-01  8.00000000E-01  1.50000000E+00  8.00000000E-01
  8.00000000E-01  1.50000000E+00  8.00000000E-01  8.00000000E-01  1.50000000E+00
  8.00000000E-01  8.00000000E-01  1.50000000E+00  8.00000000E-01  8.00000000E-01
  1.50000000E+00  8.00000000E-01  8.00000000E-01  1.50000000E+00  8.00000000E-01
  8.00000000E-01  1.50000000E+00  8.00000000E-01  8.00000000E-01  1.50000000E+00
  8.00000000E-01  8.00000000E-01  1.50000000E+00  8.00000000E-01  8.00000000E-01
  1.50000000E+00  8.00000000E-01  8.00000000E-01  1.50000000E+00  8.00000000E-01
  8.00000000E-01  1.50000000E+00  8.00000000E-01  8.00000000E-01  1.50000000E+00
  8.00000000E-01  8.00000000E-01  1.50000000E+00  8.00000000E-01  8.00000000E-01
  1.50000000E+00  8.00000000E-01  8.00000000E-01  1.50000000E+00  8.00000000E-01
  8.00000000E-01  1.50000000E+00  8.00000000E-01  8.00000000E-01  1.50000000E+00
  8.00000000E-01  8.00000000E-01  1.50000000E+00  8.00000000E-01  8.00000000E-01
  1.50000000E+00  8.00000000E-01  8.00000000E-01  1.50000000E+00  8.00000000E-01
  8.00000000E-01  1.50000000E+00  8.00000000E-01  8.00000000E-01  1.50000000E+00
  8.00000000E-01  8.00000000E-01  1.50000000E+00  8.00000000E-01  8.00000000E-01
  1.50000000E+00  8.00000000E-01  8.00000000E-01  1.50000000E+00  8.00000000E-01
  8.00000000E-01  1.50000000E+00  8.00000000E-01  8.00000000E-01  1.50000000E+00
  8.00000000E-01  8.00000000E-01  1.50000000E+00  8.00000000E-01  8.00000000E-01
  1.50000000E+00  8.00000000E-01  8.00000000E-01  1.50000000E+00  8.00000000E-01
  8.00000000E-01  1.50000000E+00  8.00000000E-01  8.00000000E-01  1.50000000E+00
  8.00000000E-01  8.00000000E-01  1.50000000E+00  8.00000000E-01  8.00000000E-01
  1.50000000E+00  8.00000000E-01  8.00000000E-01  1.50000000E+00  8.00000000E-01
  8.00000000E-01  1.50000000E+00  8.00000000E-01  8.00000000E-01  1.50000000E+00
  8.00000000E-01  8.00000000E-01  1.50000000E+00  8.00000000E-01  8.00000000E-01
  1.50000000E+00  8.00000000E-01  8.00000000E-01  1.50000000E+00  8.00000000E-01
  8.00000000E-01  1.50000000E+00  8.00000000E-01  8.00000000E-01  1.50000000E+00
  8.00000000E-01  8.00000000E-01  1.50000000E+00  8.00000000E-01  8.00000000E-01
  1.50000000E+00  8.00000000E-01  8.00000000E-01  1.50000000E+00  8.00000000E-01
  8.00000000E-01  1.50000000E+00  8.00000000E-01  8.00000000E-01  1.50000000E+00
  8.00000000E-01  8.00000000E-01  1.50000000E+00  8.00000000E-01  8.00000000E-01
  1.50000000E+00  8.00000000E-01  8.00000000E-01  1.50000000E+00  8.00000000E-01
  8.00000000E-01  1.50000000E+00  8.00000000E-01  8.00000000E-01  1.50000000E+00
  8.00000000E-01  8.00000000E-01  1.50000000E+00  8.00000000E-01  8.00000000E-01
  1.50000000E+00  8.00000000E-01  8.00000000E-01  1.50000000E+00  8.00000000E-01
  8.00000000E-01  1.50000000E+00  8.00000000E-01  8.00000000E-01  1.50000000E+00
  8.00000000E-01  8.00000000E-01  1.50000000E+00  8.00000000E-01  8.00000000E-01
  1.50000000E+00  8.00000000E-01  8.00000000E-01  1.50000000E+00  8.00000000E-01
  8.00000000E-01  1.50000000E+00  8.00000000E-01  8.00000000E-01  1.50000000E+00
  8.00000000E-01  8.00000000E-01  1.50000000E+00  8.00000000E-01  8.00000000E-01
  1.50000000E+00  8.00000000E-01  8.00000000E-01  1.50000000E+00  8.00000000E-01
  8.00000000E-01  1.50000000E+00  8.00000000E-01  8.00000000E-01  1.50000000E+00
  8.00000000E-01  8.00000000E-01  1.50000000E+00  8.00000000E-01  8.00000000E-01
  1.50000000E+00  8.00000000E-01  8.00000000E-01  1.50000000E+00  8.00000000E-01
  8.00000000E-01  1.50000000E+00  8.00000000E-01  8.00000000E-01  1.50000000E+00
  8.00000000E-01  8.00000000E-01  1.50000000E+00  8.00000000E-01  8.00000000E-01
  1.50000000E+00  8.00000000E-01  8.00000000E-01  1.50000000E+00  8.00000000E-01
  8.00000000E-01  1.50000000E+00  8.00000000E-01  8.00000000E-01  1.50000000E+00
  8.00000000E-01  8.00000000E-01  1.50000000E+00  8.00000000E-01  8.00000000E-01
  1.50000000E+00  8.00000000E-01  8.00000000E-01  1.50000000E+00  8.00000000E-01
  8.00000000E-01  1.50000000E+00  8.00000000E-01  8.00000000E-01  1.50000000E+00
  8.00000000E-01  8.00000000E-01  1.50000000E+00  8.00000000E-01  8.00000000E-01
  1.50000000E+00  8.00000000E-01  8.00000000E-01  1.50000000E+00  8.00000000E-01
  8.00000000E-01  1.50000000E+00  8.00000000E-01  8.00000000E-01  1.50000000E+00
  8.00000000E-01  8.00000000E-01  1.50000000E+00  8.00000000E-01  8.00000000E-01
  1.50000000E+00  8.00000000E-01  8.00000000E-01  1.50000000E+00  8.00000000E-01
  8.00000000E-01  1.50000000E+00  8.00000000E-01  8.00000000E-01  1.50000000E+00
  8.00000000E-01  8.00000000E-01  1.50000000E+00  8.00000000E-01  8.00000000E-01
  1.50000000E+00  8.00000000E-01  8.00000000E-01  1.50000000E+00  8.00000000E-01
  8.00000000E-01  1.50000000E+00  8.00000000E-01  8.00000000E-01  1.50000000E+00
  8.00000000E-01  8.00000000E-01  1.50000000E+00  8.00000000E-01  8.00000000E-01
  1.50000000E+00  8.00000000E-01  8.00000000E-01  1.50000000E+00  8.00000000E-01
  8.00000000E-01  1.50000000E+00  8.00000000E-01  8.00000000E-01  1.50000000E+00
  8.00000000E-01  8.00000000E-01  1.50000000E+00  8.00000000E-01  8.00000000E-01
  1.50000000E+00  8.00000000E-01  8.00000000E-01  1.50000000E+00  8.00000000E-01
  8.00000000E-01  1.50000000E+00  8.00000000E-01  8.00000000E-01  1.50000000E+00
  8.00000000E-01  8.00000000E-01  1.50000000E+00  8.00000000E-01  8.00000000E-01
  1.50000000E+00  8.00000000E-01  8.00000000E-01  1.50000000E+00  8.00000000E-01
  8.00000000E-01  1.50000000E+00  8.00000000E-01  8.00000000E-01  1.50000000E+00
  8.00000000E-01  8.00000000E-01  1.50000000E+00  8.00000000E-01  8.00000000E-01
  1.50000000E+00  8.00000000E-01  8.00000000E-01  1.50000000E+00  8.00000000E-01
  8.00000000E-01  1.50000000E+00  8.00000000E-01  8.00000000E-01  1.50000000E+00
  8.00000000E-01  8.00000000E-01  1.50000000E+00  8.00000000E-01  8.00000000E-01
  1.50000000E+00  8.00000000E-01  8.00000000E-01  1.50000000E+00  8.00000000E-01
  8.00000000E-01  1.50000000E+00  8.00000000E-01  8.00000000E-01  1.50000000E+00
  8.00000000E-01  8.00000000E-01  1.50000000E+00  8.00000000E-01  8.00000000E-01
  1.50000000E+00  8.00000000E-01  8.00000000E-01  1.50000000E+00  8.00000000E-01
  8.00000000E-01  1.50000000E+00  8.00000000E-01  8.00000000E-01  1.50000000E+00
  8.00000000E-01  8.00000000E-01  1.50000000E+00  8.00000000E-01  8.00000000E-01
  1.50000000E+00  8.00000000E-01  8.00000000E-01  1.50000000E+00  8.00000000E-01
  8.00000000E-01  1.50000000E+00  8.00000000E-01  8.00000000E-01  1.50000000E+00
  8.00000000E-01  8.00000000E-01  1.50000000E+00  8.00000000E-01  8.00000000E-01
  1.50000000E+00  8.00000000E-01  8.00000000E-01  1.50000000E+00  8.00000000E-01
  8.00000000E-01  1.50000000E+00  8.00000000E-01  8.00000000E-01  1.50000000E+00
  8.00000000E-01  8.00000000E-01  1.50000000E+00  8.00000000E-01  8.00000000E-01
  1.50000000E+00  8.00000000E-01  8.00000000E-01  1.50000000E+00  8.00000000E-01
  8.00000000E-01  1.50000000E+00  8.00000000E-01  8.00000000E-01  1.50000000E+00
  8.00000000E-01  8.00000000E-01  1.50000000E+00  8.00000000E-01  8.00000000E-01
  1.50000000E+00  8.00000000E-01  8.00000000E-01  1.50000000E+00  8.00000000E-01
  8.00000000E-01  1.50000000E+00  8.00000000E-01  8.00000000E-01  1.50000000E+00
  8.00000000E-01  8.00000000E-01  1.50000000E+00  8.00000000E-01  8.00000000E-01
  1.50000000E+00  8.00000000E-01  8.00000000E-01  1.50000000E+00  8.00000000E-01
  8.00000000E-01  1.50000000E+00  8.00000000E-01  8.00000000E-01  1.50000000E+00
  8.00000000E-01  8.00000000E-01  1.50000000E+00  8.00000000E-01  8.00000000E-01
  1.50000000E+00  8.00000000E-01  8.00000000E-01  1.50000000E+00  8.00000000E-01
  8.00000000E-01  1.50000000E+00  8.00000000E-01  8.00000000E-01  1.50000000E+00
  8.00000000E-01  8.00000000E-01  1.50000000E+00  8.00000000E-01  8.00000000E-01
  1.50000000E+00  8.00000000E-01  8.00000000E-01  1.50000000E+00  8.00000000E-01
  8.00000000E-01  1.50000000E+00  8.00000000E-01  8.00000000E-01  1.50000000E+00
  8.00000000E-01  8.00000000E-01  1.50000000E+00  8.00000000E-01  8.00000000E-01
  1.50000000E+00  8.00000000E-01  8.00000000E-01  1.50000000E+00  8.00000000E-01
  8.00000000E-01  1.50000000E+00  8.00000000E-01  8.00000000E-01  1.50000000E+00
  8.00000000E-01  8.00000000E-01  1.50000000E+00  8.00000000E-01  8.00000000E-01
  1.50000000E+00  8.00000000E-01  8.00000000E-01  1.50000000E+00  8.00000000E-01
  8.00000000E-01  1.50000000E+00  8.00000000E-01  8.00000000E-01  1.50000000E+00
  8.00000000E-01  8.00000000E-01  1.50000000E+00  8.00000000E-01  8.00000000E-01
  1.50000000E+00  8.00000000E-01  8.00000000E-01  1.50000000E+00  8.00000000E-01
  8.00000000E-01  1.50000000E+00  8.00000000E-01  8.00000000E-01  1.50000000E+00
  8.00000000E-01  8.00000000E-01  1.50000000E+00  8.00000000E-01  8.00000000E-01
  1.50000000E+00  8.00000000E-01  8.00000000E-01  1.50000000E+00  8.00000000E-01
  8.00000000E-01  1.50000000E+00  8.00000000E-01  8.00000000E-01  1.50000000E+00
  8.00000000E-01  8.00000000E-01  1.50000000E+00  8.00000000E-01  8.00000000E-01
  1.50000000E+00  8.00000000E-01  8.00000000E-01  1.50000000E+00  8.00000000E-01
  8.00000000E-01  1.50000000E+00  8.00000000E-01  8.00000000E-01  1.50000000E+00
  8.00000000E-01  8.00000000E-01  1.50000000E+00  8.00000000E-01  8.00000000E-01
  1.50000000E+00  8.00000000E-01  8.00000000E-01  1.50000000E+00  8.00000000E-01
  8.00000000E-01  1.50000000E+00  8.00000000E-01  8.00000000E-01  1.50000000E+00
  8.00000000E-01  8.00000000E-01  1.50000000E+00  8.00000000E-01  8.00000000E-01
  1.50000000E+00  8.00000000E-01  8.00000000E-01  1.50000000E+00  8.00000000E-01
  8.00000000E-01  1.50000000E+00  8.00000000E-01  8.00000000E-01  1.50000000E+00
  8.00000000E-01  8.00000000E-01  1.50000000E+00  8.00000000E-01  8.00000000E-01
  1.50000000E+00  8.00000000E-01  8.00000000E-01  1.50000000E+00  8.00000000E-01
  8.00000000E-01  1.50000000E+00  8.00000000E-01  8.00000000E-01  1.50000000E+00
  8.00000000E-01  8.00000000E-01  1.50000000E+00  8.00000000E-01  8.00000000E-01
  1.50000000E+00  8.00000000E-01  8.00000000E-01  1.50000000E+00  8.00000000E-01
  8.00000000E-01  1.50000000E+00  8.00000000E-01  8.00000000E-01  1.50000000E+00
  8.00000000E-01  8.00000000E-01  1.50000000E+00  8.00000000E-01  8.00000000E-01
  1.50000000E+00  8.00000000E-01  8.00000000E-01  1.50000000E+00  8.00000000E-01
  8.00000000E-01  1.50000000E+00  8.00000000E-01  8.00000000E-01  1.50000000E+00
  8.00000000E-01  8.00000000E-01  1.50000000E+00  8.00000000E-01  8.00000000E-01
  1.50000000E+00  8.00000000E-01  8.00000000E-01  1.50000000E+00  8.00000000E-01
  8.00000000E-01  1.50000000E+00  8.00000000E-01  8.00000000E-01  1.50000000E+00
  8.00000000E-01  8.00000000E-01  1.50000000E+00  8.00000000E-01  8.00000000E-01
  1.50000000E+00  8.00000000E-01  8.00000000E-01  1.50000000E+00  8.00000000E-01
  8.00000000E-01  1.50000000E+00  8.00000000E-01  8.00000000E-01  1.50000000E+00
  8.00000000E-01  8.00000000E-01  1.50000000E+00  8.00000000E-01  8.00000000E-01
  1.50000000E+00  8.00000000E-01  8.00000000E-01  1.50000000E+00  8.00000000E-01
  8.00000000E-01  1.50000000E+00  8.00000000E-01  8.00000000E-01  1.50000000E+00
  8.00000000E-01  8.00000000E-01  1.50000000E+00  8.00000000E-01  8.00000000E-01
  1.50000000E+00  8.00000000E-01  8.00000000E-01  1.50000000E+00  8.00000000E-01
  8.00000000E-01  1.50000000E+00  8.00000000E-01  8.00000000E-01  1.50000000E+00
  8.00000000E-01  8.00000000E-01  1.50000000E+00  8.00000000E-01  8.00000000E-01
  1.50000000E+00  8.00000000E-01  8.00000000E-01  1.50000000E+00  8.00000000E-01
  8.00000000E-01  1.50000000E+00  8.00000000E-01  8.00000000E-01  1.50000000E+00
  8.00000000E-01  8.00000000E-01  1.50000000E+00  8.00000000E-01  8.00000000E-01
  1.50000000E+00  8.00000000E-01  8.00000000E-01  1.50000000E+00  8.00000000E-01
  8.00000000E-01  1.50000000E+00  8.00000000E-01  8.00000000E-01  1.50000000E+00
  8.00000000E-01  8.00000000E-01  1.50000000E+00  8.00000000E-01  8.00000000E-01
  1.50000000E+00  8.00000000E-01  8.00000000E-01  1.50000000E+00  8.00000000E-01
  8.00000000E-01  1.50000000E+00  8.00000000E-01  8.00000000E-01  1.50000000E+00
  8.00000000E-01  8.00000000E-01  1.50000000E+00  8.00000000E-01  8.00000000E-01
  1.50000000E+00  8.00000000E-01  8.00000000E-01  1.50000000E+00  8.00000000E-01
  8.00000000E-01  1.50000000E+00  8.00000000E-01  8.00000000E-01  1.50000000E+00
  8.00000000E-01  8.00000000E-01  1.50000000E+00  8.00000000E-01  8.00000000E-01
  1.50000000E+00  8.00000000E-01  8.00000000E-01  1.50000000E+00  8.00000000E-01
  8.00000000E-01  1.50000000E+00  8.00000000E-01  8.00000000E-01  1.50000000E+00
  8.00000000E-01  8.00000000E-01  1.50000000E+00  8.00000000E-01  8.00000000E-01
  1.50000000E+00  8.00000000E-01  8.00000000E-01  1.50000000E+00  8.00000000E-01
  8.00000000E-01  1.50000000E+00  8.00000000E-01  8.00000000E-01  1.50000000E+00
  8.00000000E-01  8.00000000E-01  1.50000000E+00  8.00000000E-01  8.00000000E-01
  1.50000000E+00  8.00000000E-01  8.00000000E-01  1.50000000E+00  8.00000000E-01
  8.00000000E-01  1.50000000E+00  8.00000000E-01  8.00000000E-01  1.50000000E+00
  8.00000000E-01  8.00000000E-01  1.50000000E+00  8.00000000E-01  8.00000000E-01
  1.50000000E+00  8.00000000E-01  8.00000000E-01  1.50000000E+00  8.00000000E-01
  8.00000000E-01  1.50000000E+00  8.00000000E-01  8.00000000E-01  1.50000000E+00
  8.00000000E-01  8.00000000E-01  1.50000000E+00  8.00000000E-01  8.00000000E-01
  1.50000000E+00  8.00000000E-01  8.00000000E-01  1.50000000E+00  8.00000000E-01
  8.00000000E-01  1.50000000E+00  8.00000000E-01  8.00000000E-01  1.50000000E+00
  8.00000000E-01  8.00000000E-01  1.50000000E+00  8.00000000E-01  8.00000000E-01
  1.50000000E+00  8.00000000E-01  8.00000000E-01  1.50000000E+00  8.00000000E-01
  8.00000000E-01  1.50000000E+00  8.00000000E-01  8.00000000E-01  1.50000000E+00
  8.00000000E-01  8.00000000E-01  1.50000000E+00  8.00000000E-01  8.00000000E-01
  1.50000000E+00  8.00000000E-01  8.00000000E-01  1.50000000E+00  8.00000000E-01
  8.00000000E-01  1.50000000E+00  8.00000000E-01  8.00000000E-01  1.50000000E+00
  8.00000000E-01  8.00000000E-01  1.50000000E+00  8.00000000E-01  8.00000000E-01
  1.50000000E+00  8.00000000E-01  8.00000000E-01  1.50000000E+00  8.00000000E-01
  8.00000000E-01  1.50000000E+00  8.00000000E-01  8.00000000E-01  1.50000000E+00
  8.00000000E-01  8.00000000E-01  1.50000000E+00  8.00000000E-01  8.00000000E-01
  1.50000000E+00  8.00000000E-01  8.00000000E-01  1.50000000E+00  8.00000000E-01
  8.00000000E-01  1.50000000E+00  8.00000000E-01  8.00000000E-01  1.50000000E+00
  8.00000000E-01  8.00000000E-01  1.50000000E+00  8.00000000E-01  8.00000000E-01
  1.50000000E+00  8.00000000E-01  8.00000000E-01  1.50000000E+00  8.00000000E-01
  8.00000000E-01  1.50000000E+00  8.00000000E-01  8.00000000E-01  1.50000000E+00
  8.00000000E-01  8.00000000E-01  1.50000000E+00  8.00000000E-01  8.00000000E-01
  1.50000000E+00  8.00000000E-01  8.00000000E-01  1.50000000E+00  8.00000000E-01
  8.00000000E-01  1.50000000E+00  8.00000000E-01  8.00000000E-01  1.50000000E+00
  8.00000000E-01  8.00000000E-01  1.50000000E+00  8.00000000E-01  8.00000000E-01
  1.50000000E+00  8.00000000E-01  8.00000000E-01  1.50000000E+00  8.00000000E-01
  8.00000000E-01  1.50000000E+00  8.00000000E-01  8.00000000E-01  1.50000000E+00
  8.00000000E-01  8.00000000E-01  1.50000000E+00  8.00000000E-01  8.00000000E-01
  1.50000000E+00  8.00000000E-01  8.00000000E-01  1.50000000E+00  8.00000000E-01
  8.00000000E-01  1.50000000E+00  8.00000000E-01  8.00000000E-01  1.50000000E+00
  8.00000000E-01  8.00000000E-01  1.50000000E+00  8.00000000E-01  8.00000000E-01
  1.50000000E+00  8.00000000E-01  8.00000000E-01  1.50000000E+00  8.00000000E-01
  8.00000000E-01  1.50000000E+00  8.00000000E-01  8.00000000E-01  1.50000000E+00
  8.00000000E-01  8.00000000E-01  1.50000000E+00  8.00000000E-01  8.00000000E-01
  1.50000000E+00  8.00000000E-01  8.00000000E-01  1.50000000E+00  8.00000000E-01
  8.00000000E-01  1.50000000E+00  8.00000000E-01  8.00000000E-01  1.50000000E+00
  8.00000000E-01  8.00000000E-01  1.50000000E+00  8.00000000E-01  8.00000000E-01
  1.50000000E+00  8.00000000E-01  8.00000000E-01  1.50000000E+00  8.00000000E-01
  8.00000000E-01  1.50000000E+00  8.00000000E-01  8.00000000E-01  1.50000000E+00
  8.00000000E-01  8.00000000E-01  1.50000000E+00  8.00000000E-01  8.00000000E-01
  1.50000000E+00  8.00000000E-01  8.00000000E-01  1.50000000E+00  8.00000000E-01
  8.00000000E-01  1.50000000E+00  8.00000000E-01  8.00000000E-01  1.50000000E+00
  8.00000000E-01  8.00000000E-01  1.50000000E+00  8.00000000E-01  8.00000000E-01
  1.50000000E+00  8.00000000E-01  8.00000000E-01  1.50000000E+00  8.00000000E-01
  8.00000000E-01  1.50000000E+00  8.00000000E-01  8.00000000E-01  1.50000000E+00
  8.00000000E-01  8.00000000E-01  1.50000000E+00  8.00000000E-01  8.00000000E-01
  1.50000000E+00  8.00000000E-01  8.00000000E-01  1.50000000E+00  8.00000000E-01
  8.00000000E-01  1.50000000E+00  8.00000000E-01  8.00000000E-01  1.50000000E+00
  8.00000000E-01  8.00000000E-01  1.50000000E+00  8.00000000E-01  8.00000000E-01
  1.50000000E+00  8.00000000E-01  8.00000000E-01  1.50000000E+00  8.00000000E-01
  8.00000000E-01  1.50000000E+00  8.00000000E-01  8.00000000E-01  1.50000000E+00
  8.00000000E-01  8.00000000E-01  1.50000000E+00  8.00000000E-01  8.00000000E-01
  1.50000000E+00  8.00000000E-01  8.00000000E-01  1.50000000E+00  8.00000000E-01
  8.00000000E-01  1.50000000E+00  8.00000000E-01  8.00000000E-01  1.50000000E+00
  8.00000000E-01  8.00000000E-01  1.50000000E+00  8.00000000E-01  8.00000000E-01
  1.50000000E+00  8.00000000E-01  8.00000000E-01  1.50000000E+00  8.00000000E-01
  8.00000000E-01  1.50000000E+00  8.00000000E-01  8.00000000E-01  1.50000000E+00
  8.00000000E-01  8.00000000E-01  1.50000000E+00  8.00000000E-01  8.00000000E-01
  1.50000000E+00  8.00000000E-01  8.00000000E-01  1.50000000E+00  8.00000000E-01
  8.00000000E-01  1.50000000E+00  8.00000000E-01  8.00000000E-01  1.50000000E+00
  8.00000000E-01  8.00000000E-01  1.50000000E+00  8.00000000E-01  8.00000000E-01
  1.50000000E+00  8.00000000E-01  8.00000000E-01  1.50000000E+00  8.00000000E-01
  8.00000000E-01  1.50000000E+00  8.00000000E-01  8.00000000E-01  1.50000000E+00
  8.00000000E-01  8.00000000E-01  1.50000000E+00  8.00000000E-01  8.00000000E-01
  1.50000000E+00  8.00000000E-01  8.00000000E-01  1.50000000E+00  8.00000000E-01
  8.00000000E-01  1.50000000E+00  8.00000000E-01  8.00000000E-01  1.50000000E+00
  8.00000000E-01  8.00000000E-01  1.50000000E+00  8.00000000E-01  8.00000000E-01
  1.50000000E+00  8.00000000E-01  8.00000000E-01  1.50000000E+00  8.00000000E-01
  8.00000000E-01  1.50000000E+00  8.00000000E-01  8.00000000E-01  1.50000000E+00
  8.00000000E-01  8.00000000E-01  1.50000000E+00  8.00000000E-01  8.00000000E-01
  1.50000000E+00  8.00000000E-01  8.00000000E-01  1.50000000E+00  8.00000000E-01
  8.00000000E-01  1.50000000E+00  8.00000000E-01  8.00000000E-01  1.50000000E+00
  8.00000000E-01  8.00000000E-01  1.50000000E+00  8.00000000E-01  8.00000000E-01
  1.50000000E+00  8.00000000E-01  8.00000000E-01  1.50000000E+00  8.00000000E-01
  8.00000000E-01  1.50000000E+00  8.00000000E-01  8.00000000E-01  1.50000000E+00
  8.00000000E-01  8.00000000E-01  1.50000000E+00  8.00000000E-01  8.00000000E-01
  1.50000000E+00  8.00000000E-01  8.00000000E-01  1.50000000E+00  8.00000000E-01
  8.00000000E-01  1.50000000E+00  8.00000000E-01  8.00000000E-01  1.50000000E+00
  8.00000000E-01  8.00000000E-01  1.50000000E+00  8.00000000E-01  8.00000000E-01
  1.50000000E+00  8.00000000E-01  8.00000000E-01  1.50000000E+00  8.00000000E-01
  8.00000000E-01  1.50000000E+00  8.00000000E-01  8.00000000E-01  1.50000000E+00
  8.00000000E-01  8.00000000E-01  1.50000000E+00  8.00000000E-01  8.00000000E-01
  1.50000000E+00  8.00000000E-01  8.00000000E-01  1.50000000E+00  8.00000000E-01
  8.00000000E-01  1.50000000E+00  8.00000000E-01  8.00000000E-01  1.50000000E+00
  8.00000000E-01  8.00000000E-01  1.50000000E+00  8.00000000E-01  8.00000000E-01
  1.50000000E+00  8.00000000E-01  8.00000000E-01  1.50000000E+00  8.00000000E-01
  8.00000000E-01  1.50000000E+00  8.00000000E-01  8.00000000E-01  1.50000000E+00
  8.00000000E-01  8.00000000E-01  1.50000000E+00  8.00000000E-01  8.00000000E-01
  1.50000000E+00  8.00000000E-01  8.00000000E-01  1.50000000E+00  8.00000000E-01
  8.00000000E-01  1.50000000E+00  8.00000000E-01  8.00000000E-01  1.50000000E+00
  8.00000000E-01  8.00000000E-01  1.50000000E+00  8.00000000E-01  8.00000000E-01
  1.50000000E+00  8.00000000E-01  8.00000000E-01  1.50000000E+00  8.00000000E-01
  8.00000000E-01  1.50000000E+00  8.00000000E-01  8.00000000E-01  1.50000000E+00
  8.00000000E-01  8.00000000E-01  1.50000000E+00  8.00000000E-01  8.00000000E-01
  1.50000000E+00  8.00000000E-01  8.00000000E-01  1.50000000E+00  8.00000000E-01
  8.00000000E-01  1.50000000E+00  8.00000000E-01  8.00000000E-01  1.50000000E+00
  8.00000000E-01  8.00000000E-01  1.50000000E+00  8.00000000E-01  8.00000000E-01
  1.50000000E+00  8.00000000E-01  8.00000000E-01  1.50000000E+00  8.00000000E-01
  8.00000000E-01  1.50000000E+00  8.00000000E-01  8.00000000E-01  1.50000000E+00
  8.00000000E-01  8.00000000E-01  1.50000000E+00  8.00000000E-01  8.00000000E-01
  1.50000000E+00  8.00000000E-01  8.00000000E-01  1.50000000E+00  8.00000000E-01
  8.00000000E-01  1.50000000E+00  8.00000000E-01  8.00000000E-01  1.50000000E+00
  8.00000000E-01  8.00000000E-01  1.50000000E+00  8.00000000E-01  8.00000000E-01
  1.50000000E+00  8.00000000E-01  8.00000000E-01  1.50000000E+00  8.00000000E-01
  8.00000000E-01  1.50000000E+00  8.00000000E-01  8.00000000E-01  1.50000000E+00
  8.00000000E-01  8.00000000E-01  1.50000000E+00  8.00000000E-01  8.00000000E-01
  1.50000000E+00  8.00000000E-01  8.00000000E-01  1.50000000E+00  8.00000000E-01
  8.00000000E-01  1.50000000E+00  8.00000000E-01  8.00000000E-01  1.50000000E+00
  8.00000000E-01  8.00000000E-01  1.50000000E+00  8.00000000E-01  8.00000000E-01
  1.50000000E+00  8.00000000E-01  8.00000000E-01  1.50000000E+00  8.00000000E-01
  8.00000000E-01  1.50000000E+00  8.00000000E-01  8.00000000E-01  1.50000000E+00
  8.00000000E-01  8.00000000E-01  1.50000000E+00  8.00000000E-01  8.00000000E-01
  1.50000000E+00  8.00000000E-01  8.00000000E-01  1.50000000E+00  8.00000000E-01
  8.00000000E-01  1.50000000E+00  8.00000000E-01  8.00000000E-01  1.50000000E+00
  8.00000000E-01  8.00000000E-01  1.50000000E+00  8.00000000E-01  8.00000000E-01
  1.50000000E+00  8.00000000E-01  8.00000000E-01  1.50000000E+00  8.00000000E-01
  8.00000000E-01  1.50000000E+00  8.00000000E-01  8.00000000E-01  1.50000000E+00
  8.00000000E-01  8.00000000E-01  1.50000000E+00  8.00000000E-01  8.00000000E-01
  1.50000000E+00  8.00000000E-01  8.00000000E-01  1.50000000E+00  8.00000000E-01
  8.00000000E-01  1.50000000E+00  8.00000000E-01  8.00000000E-01  1.50000000E+00
  8.00000000E-01  8.00000000E-01  1.50000000E+00  8.00000000E-01  8.00000000E-01
  1.50000000E+00  8.00000000E-01  8.00000000E-01  1.50000000E+00  8.00000000E-01
  8.00000000E-01  1.50000000E+00  8.00000000E-01  8.00000000E-01  1.50000000E+00
  8.00000000E-01  8.00000000E-01  1.50000000E+00  8.00000000E-01  8.00000000E-01
  1.50000000E+00  8.00000000E-01  8.00000000E-01  1.50000000E+00  8.00000000E-01
  8.00000000E-01  1.50000000E+00  8.00000000E-01  8.00000000E-01  1.50000000E+00
  8.00000000E-01  8.00000000E-01  1.50000000E+00  8.00000000E-01  8.00000000E-01
  1.50000000E+00  8.00000000E-01  8.00000000E-01  1.50000000E+00  8.00000000E-01
  8.00000000E-01  1.50000000E+00  8.00000000E-01  8.00000000E-01  1.50000000E+00
  8.00000000E-01  8.00000000E-01  1.50000000E+00  8.00000000E-01  8.00000000E-01
  1.50000000E+00  8.00000000E-01  8.00000000E-01  1.50000000E+00  8.00000000E-01
  8.00000000E-01  1.50000000E+00  8.00000000E-01  8.00000000E-01  1.50000000E+00
  8.00000000E-01  8.00000000E-01  1.50000000E+00  8.00000000E-01  8.00000000E-01
  1.50000000E+00  8.00000000E-01  8.00000000E-01  1.50000000E+00  8.00000000E-01
  8.00000000E-01  1.50000000E+00  8.00000000E-01  8.00000000E-01  1.50000000E+00
  8.00000000E-01  8.00000000E-01  1.50000000E+00  8.00000000E-01  8.00000000E-01
  1.50000000E+00  8.00000000E-01  8.00000000E-01  1.50000000E+00  8.00000000E-01
  8.00000000E-01  1.50000000E+00  8.00000000E-01  8.00000000E-01  1.50000000E+00
  8.00000000E-01  8.00000000E-01  1.50000000E+00  8.00000000E-01  8.00000000E-01
  1.50000000E+00  8.00000000E-01  8.00000000E-01  1.50000000E+00  8.00000000E-01
  8.00000000E-01  1.50000000E+00  8.00000000E-01  8.00000000E-01  1.50000000E+00
  8.00000000E-01  8.00000000E-01  1.50000000E+00  8.00000000E-01  8.00000000E-01
  1.50000000E+00  8.00000000E-01  8.00000000E-01  1.50000000E+00  8.00000000E-01
  8.00000000E-01  1.50000000E+00  8.00000000E-01  8.00000000E-01  1.50000000E+00
  8.00000000E-01  8.00000000E-01  1.50000000E+00  8.00000000E-01  8.00000000E-01
  1.50000000E+00  8.00000000E-01  8.00000000E-01  1.50000000E+00  8.00000000E-01
  8.00000000E-01  1.50000000E+00  8.00000000E-01  8.00000000E-01  1.50000000E+00
  8.00000000E-01  8.00000000E-01  1.50000000E+00  8.00000000E-01  8.00000000E-01
  1.50000000E+00  8.00000000E-01  8.00000000E-01  1.50000000E+00  8.00000000E-01
  8.00000000E-01  1.50000000E+00  8.00000000E-01  8.00000000E-01  1.50000000E+00
  8.00000000E-01  8.00000000E-01  1.50000000E+00  8.00000000E-01  8.00000000E-01
  1.50000000E+00  8.00000000E-01  8.00000000E-01  1.50000000E+00  8.00000000E-01
  8.00000000E-01  1.50000000E+00  8.00000000E-01  8.00000000E-01  1.50000000E+00
  8.00000000E-01  8.00000000E-01  1.50000000E+00  8.00000000E-01  8.00000000E-01
  1.50000000E+00  8.00000000E-01  8.00000000E-01  1.50000000E+00  8.00000000E-01
  8.00000000E-01  1.50000000E+00  8.00000000E-01  8.00000000E-01  1.50000000E+00
  8.00000000E-01  8.00000000E-01  1.50000000E+00  8.00000000E-01  8.00000000E-01
  1.50000000E+00  8.00000000E-01  8.00000000E-01  1.50000000E+00  8.00000000E-01
  8.00000000E-01  1.50000000E+00  8.00000000E-01  8.00000000E-01  1.50000000E+00
  8.00000000E-01  8.00000000E-01  1.50000000E+00  8.00000000E-01  8.00000000E-01
  1.50000000E+00  8.00000000E-01  8.00000000E-01  1.50000000E+00  8.00000000E-01
  8.00000000E-01  1.50000000E+00  8.00000000E-01  8.00000000E-01  1.50000000E+00
  8.00000000E-01  8.00000000E-01  1.50000000E+00  8.00000000E-01  8.00000000E-01
  1.50000000E+00  8.00000000E-01  8.00000000E-01  1.50000000E+00  8.00000000E-01
  8.00000000E-01  1.50000000E+00  8.00000000E-01  8.00000000E-01  1.50000000E+00
  8.00000000E-01  8.00000000E-01  1.50000000E+00  8.00000000E-01  8.00000000E-01
  1.50000000E+00  8.00000000E-01  8.00000000E-01  1.50000000E+00  8.00000000E-01
  8.00000000E-01  1.50000000E+00  8.00000000E-01  8.00000000E-01  1.50000000E+00
  8.00000000E-01  8.00000000E-01  1.50000000E+00  8.00000000E-01  8.00000000E-01
  1.50000000E+00  8.00000000E-01  8.00000000E-01  1.50000000E+00  8.00000000E-01
  8.00000000E-01  1.50000000E+00  8.00000000E-01  8.00000000E-01  1.50000000E+00
  8.00000000E-01  8.00000000E-01  1.50000000E+00  8.00000000E-01  8.00000000E-01
  1.50000000E+00  8.00000000E-01  8.00000000E-01  1.50000000E+00  8.00000000E-01
  8.00000000E-01  1.50000000E+00  8.00000000E-01  8.00000000E-01  1.50000000E+00
  8.00000000E-01  8.00000000E-01  1.50000000E+00  8.00000000E-01  8.00000000E-01
  1.50000000E+00  8.00000000E-01  8.00000000E-01  1.50000000E+00  8.00000000E-01
  8.00000000E-01  1.50000000E+00  8.00000000E-01  8.00000000E-01  1.50000000E+00
  8.00000000E-01  8.00000000E-01  1.50000000E+00  8.00000000E-01  8.00000000E-01
  1.50000000E+00  8.00000000E-01  8.00000000E-01  1.50000000E+00  8.00000000E-01
  8.00000000E-01  1.50000000E+00  8.00000000E-01  8.00000000E-01  1.50000000E+00
  8.00000000E-01  8.00000000E-01  1.50000000E+00  8.00000000E-01  8.00000000E-01
  1.50000000E+00  8.00000000E-01  8.00000000E-01  1.50000000E+00  8.00000000E-01
  8.00000000E-01  1.50000000E+00  8.00000000E-01  8.00000000E-01  1.50000000E+00
  8.00000000E-01  8.00000000E-01  1.50000000E+00  8.00000000E-01  8.00000000E-01
  1.50000000E+00  8.00000000E-01  8.00000000E-01  1.50000000E+00  8.00000000E-01
  8.00000000E-01  1.50000000E+00  8.00000000E-01  8.00000000E-01  1.50000000E+00
  8.00000000E-01  8.00000000E-01  1.50000000E+00  8.00000000E-01  8.00000000E-01
  1.50000000E+00  8.00000000E-01  8.00000000E-01  1.50000000E+00  8.00000000E-01
  8.00000000E-01  1.50000000E+00  8.00000000E-01  8.00000000E-01  1.50000000E+00
  8.00000000E-01  8.00000000E-01  1.50000000E+00  8.00000000E-01  8.00000000E-01
  1.50000000E+00  8.00000000E-01  8.00000000E-01  1.50000000E+00  8.00000000E-01
  8.00000000E-01  1.50000000E+00  8.00000000E-01  8.00000000E-01  1.50000000E+00
  8.00000000E-01  8.00000000E-01  1.50000000E+00  8.00000000E-01  8.00000000E-01
  1.50000000E+00  8.00000000E-01  8.00000000E-01  1.50000000E+00  8.00000000E-01
  8.00000000E-01  1.50000000E+00  8.00000000E-01  8.00000000E-01  1.50000000E+00
  8.00000000E-01  8.00000000E-01  1.50000000E+00  8.00000000E-01  8.00000000E-01
  1.50000000E+00  8.00000000E-01  8.00000000E-01  1.50000000E+00  8.00000000E-01
  8.00000000E-01  1.50000000E+00  8.00000000E-01  8.00000000E-01  1.50000000E+00
  8.00000000E-01  8.00000000E-01  1.50000000E+00  8.00000000E-01  8.00000000E-01
  1.50000000E+00  8.00000000E-01  8.00000000E-01  1.50000000E+00  8.00000000E-01
  8.00000000E-01  1.50000000E+00  8.00000000E-01  8.00000000E-01  1.50000000E+00
  8.00000000E-01  8.00000000E-01  1.50000000E+00  8.00000000E-01  8.00000000E-01
  1.50000000E+00  8.00000000E-01  8.00000000E-01  1.50000000E+00  8.00000000E-01
  8.00000000E-01  1.50000000E+00  8.00000000E-01  8.00000000E-01  1.50000000E+00
  8.00000000E-01  8.00000000E-01  1.50000000E+00  8.00000000E-01  8.00000000E-01
  1.50000000E+00  8.00000000E-01  8.00000000E-01  1.50000000E+00  8.00000000E-01
  8.00000000E-01  1.50000000E+00  8.00000000E-01  8.00000000E-01  1.50000000E+00
  8.00000000E-01  8.00000000E-01  1.50000000E+00  8.00000000E-01  8.00000000E-01
  1.50000000E+00  8.00000000E-01  8.00000000E-01  1.50000000E+00  8.00000000E-01
  8.00000000E-01  1.50000000E+00  8.00000000E-01  8.00000000E-01  1.50000000E+00
  8.00000000E-01  8.00000000E-01  1.50000000E+00  8.00000000E-01  8.00000000E-01
  1.50000000E+00  8.00000000E-01  8.00000000E-01  1.50000000E+00  8.00000000E-01
  8.00000000E-01  1.50000000E+00  8.00000000E-01  8.00000000E-01  1.50000000E+00
  8.00000000E-01  8.00000000E-01  1.50000000E+00  8.00000000E-01  8.00000000E-01
  1.50000000E+00  8.00000000E-01  8.00000000E-01  1.50000000E+00  8.00000000E-01
  8.00000000E-01  1.50000000E+00  8.00000000E-01  8.00000000E-01  1.50000000E+00
  8.00000000E-01  8.00000000E-01  1.50000000E+00  8.00000000E-01  8.00000000E-01
  1.50000000E+00  8.00000000E-01  8.00000000E-01  1.50000000E+00  8.00000000E-01
  8.00000000E-01  1.50000000E+00  8.00000000E-01  8.00000000E-01  1.50000000E+00
  8.00000000E-01  8.00000000E-01  1.50000000E+00  8.00000000E-01  8.00000000E-01
  1.50000000E+00  8.00000000E-01  8.00000000E-01  1.50000000E+00  8.00000000E-01
  8.00000000E-01  1.50000000E+00  8.00000000E-01  8.00000000E-01  1.50000000E+00
  8.00000000E-01  8.00000000E-01  1.50000000E+00  8.00000000E-01  8.00000000E-01
  1.50000000E+00  8.00000000E-01  8.00000000E-01  1.50000000E+00  8.00000000E-01
  8.00000000E-01  1.50000000E+00  8.00000000E-01  8.00000000E-01  1.50000000E+00
  8.00000000E-01  8.00000000E-01  1.50000000E+00  8.00000000E-01  8.00000000E-01
  1.50000000E+00  8.00000000E-01  8.00000000E-01  1.50000000E+00  8.00000000E-01
  8.00000000E-01  1.50000000E+00  8.00000000E-01  8.00000000E-01  1.50000000E+00
  8.00000000E-01  8.00000000E-01  1.50000000E+00  8.00000000E-01  8.00000000E-01
  1.50000000E+00  8.00000000E-01  8.00000000E-01  1.50000000E+00  8.00000000E-01
  8.00000000E-01  1.50000000E+00  8.00000000E-01  8.00000000E-01  1.50000000E+00
  8.00000000E-01  8.00000000E-01  1.50000000E+00  8.00000000E-01  8.00000000E-01
  1.50000000E+00  8.00000000E-01  8.00000000E-01  1.50000000E+00  8.00000000E-01
  8.00000000E-01  1.50000000E+00  8.00000000E-01  8.00000000E-01  1.50000000E+00
  8.00000000E-01  8.00000000E-01  1.50000000E+00  8.00000000E-01  8.00000000E-01
  1.50000000E+00  8.00000000E-01  8.00000000E-01  1.50000000E+00  8.00000000E-01
  8.00000000E-01  1.50000000E+00  8.00000000E-01  8.00000000E-01  1.50000000E+00
  8.00000000E-01  8.00000000E-01  1.50000000E+00  8.00000000E-01  8.00000000E-01
  1.50000000E+00  8.00000000E-01  8.00000000E-01  1.50000000E+00  8.00000000E-01
  8.00000000E-01  1.50000000E+00  8.00000000E-01  8.00000000E-01  1.50000000E+00
  8.00000000E-01  8.00000000E-01  1.50000000E+00  8.00000000E-01  8.00000000E-01
  1.50000000E+00  8.00000000E-01  8.00000000E-01  1.50000000E+00  8.00000000E-01
  8.00000000E-01  1.50000000E+00  8.00000000E-01  8.00000000E-01  1.50000000E+00
  8.00000000E-01  8.00000000E-01  1.50000000E+00  8.00000000E-01  8.00000000E-01
  1.50000000E+00  8.00000000E-01  8.00000000E-01  1.50000000E+00  8.00000000E-01
  8.00000000E-01  1.50000000E+00  8.00000000E-01  8.00000000E-01  1.50000000E+00
  8.00000000E-01  8.00000000E-01  1.50000000E+00  8.00000000E-01  8.00000000E-01
  1.50000000E+00  8.00000000E-01  8.00000000E-01  1.50000000E+00  8.00000000E-01
  8.00000000E-01  1.50000000E+00  8.00000000E-01  8.00000000E-01  1.50000000E+00
  8.00000000E-01  8.00000000E-01  1.50000000E+00  8.00000000E-01  8.00000000E-01
  1.50000000E+00  8.00000000E-01  8.00000000E-01  1.50000000E+00  8.00000000E-01
  8.00000000E-01  1.50000000E+00  8.00000000E-01  8.00000000E-01  1.50000000E+00
  8.00000000E-01  8.00000000E-01  1.50000000E+00  8.00000000E-01  8.00000000E-01
  1.50000000E+00  8.00000000E-01  8.00000000E-01  1.50000000E+00  8.00000000E-01
  8.00000000E-01  1.50000000E+00  8.00000000E-01  8.00000000E-01  1.50000000E+00
  8.00000000E-01  8.00000000E-01  1.50000000E+00  8.00000000E-01  8.00000000E-01
  1.50000000E+00  8.00000000E-01  8.00000000E-01  1.50000000E+00  8.00000000E-01
  8.00000000E-01  1.50000000E+00  8.00000000E-01  8.00000000E-01  1.50000000E+00
  8.00000000E-01  8.00000000E-01  1.50000000E+00  8.00000000E-01  8.00000000E-01
  1.50000000E+00  8.00000000E-01  8.00000000E-01  1.50000000E+00  8.00000000E-01
  8.00000000E-01  1.50000000E+00  8.00000000E-01  8.00000000E-01  1.50000000E+00
  8.00000000E-01  8.00000000E-01  1.50000000E+00  8.00000000E-01  8.00000000E-01
  1.50000000E+00  8.00000000E-01  8.00000000E-01  1.50000000E+00  8.00000000E-01
  8.00000000E-01  1.50000000E+00  8.00000000E-01  8.00000000E-01  1.50000000E+00
  8.00000000E-01  8.00000000E-01  1.50000000E+00  8.00000000E-01  8.00000000E-01
  1.50000000E+00  8.00000000E-01  8.00000000E-01  1.50000000E+00  8.00000000E-01
  8.00000000E-01  1.50000000E+00  8.00000000E-01  8.00000000E-01  1.50000000E+00
  8.00000000E-01  8.00000000E-01  1.50000000E+00  8.00000000E-01  8.00000000E-01
  1.50000000E+00  8.00000000E-01  8.00000000E-01  1.50000000E+00  8.00000000E-01
  8.00000000E-01  1.50000000E+00  8.00000000E-01  8.00000000E-01  1.50000000E+00
  8.00000000E-01  8.00000000E-01  1.50000000E+00  8.00000000E-01  8.00000000E-01
  1.50000000E+00  8.00000000E-01  8.00000000E-01  1.50000000E+00  8.00000000E-01
  8.00000000E-01  1.50000000E+00  8.00000000E-01  8.00000000E-01  1.50000000E+00
  8.00000000E-01  8.00000000E-01  1.50000000E+00  8.00000000E-01  8.00000000E-01
  1.50000000E+00  8.00000000E-01  8.00000000E-01  1.50000000E+00  8.00000000E-01
  8.00000000E-01  1.50000000E+00  8.00000000E-01  8.00000000E-01  1.50000000E+00
  8.00000000E-01  8.00000000E-01  1.50000000E+00  8.00000000E-01  8.00000000E-01
  1.50000000E+00  8.00000000E-01  8.00000000E-01  1.50000000E+00  8.00000000E-01
  8.00000000E-01  1.50000000E+00  8.00000000E-01  8.00000000E-01  1.50000000E+00
  8.00000000E-01  8.00000000E-01  1.50000000E+00  8.00000000E-01  8.00000000E-01
  1.50000000E+00  8.00000000E-01  8.00000000E-01  1.50000000E+00  8.00000000E-01
  8.00000000E-01  1.50000000E+00  8.00000000E-01  8.00000000E-01  1.50000000E+00
  8.00000000E-01  8.00000000E-01  1.50000000E+00  8.00000000E-01  8.00000000E-01
  1.50000000E+00  8.00000000E-01  8.00000000E-01  1.50000000E+00  8.00000000E-01
  8.00000000E-01  1.50000000E+00  8.00000000E-01  8.00000000E-01  1.50000000E+00
  8.00000000E-01  8.00000000E-01  1.50000000E+00  8.00000000E-01  8.00000000E-01
  1.50000000E+00  8.00000000E-01  8.00000000E-01  1.50000000E+00  8.00000000E-01
  8.00000000E-01  1.50000000E+00  8.00000000E-01  8.00000000E-01  1.50000000E+00
  8.00000000E-01  8.00000000E-01  1.50000000E+00  8.00000000E-01  8.00000000E-01
  1.50000000E+00  8.00000000E-01  8.00000000E-01  1.50000000E+00  8.00000000E-01
  8.00000000E-01  1.50000000E+00  8.00000000E-01  8.00000000E-01  1.50000000E+00
  8.00000000E-01  8.00000000E-01  1.50000000E+00  8.00000000E-01  8.00000000E-01
  1.50000000E+00  8.00000000E-01  8.00000000E-01  1.50000000E+00  8.00000000E-01
  8.00000000E-01  1.50000000E+00  8.00000000E-01  8.00000000E-01  1.50000000E+00
  8.00000000E-01  8.00000000E-01  1.50000000E+00  8.00000000E-01  8.00000000E-01
  1.50000000E+00  8.00000000E-01  8.00000000E-01  1.50000000E+00  8.00000000E-01
  8.00000000E-01  1.50000000E+00  8.00000000E-01  8.00000000E-01  1.50000000E+00
  8.00000000E-01  8.00000000E-01  1.50000000E+00  8.00000000E-01  8.00000000E-01
  1.50000000E+00  8.00000000E-01  8.00000000E-01  1.50000000E+00  8.00000000E-01
  8.00000000E-01  1.50000000E+00  8.00000000E-01  8.00000000E-01  1.50000000E+00
  8.00000000E-01  8.00000000E-01  1.50000000E+00  8.00000000E-01  8.00000000E-01
  1.50000000E+00  8.00000000E-01  8.00000000E-01  1.50000000E+00  8.00000000E-01
  8.00000000E-01  1.50000000E+00  8.00000000E-01  8.00000000E-01  1.50000000E+00
  8.00000000E-01  8.00000000E-01  1.50000000E+00  8.00000000E-01  8.00000000E-01
  1.50000000E+00  8.00000000E-01  8.00000000E-01  1.50000000E+00  8.00000000E-01
  8.00000000E-01  1.50000000E+00  8.00000000E-01  8.00000000E-01  1.50000000E+00
  8.00000000E-01  8.00000000E-01  1.50000000E+00  8.00000000E-01  8.00000000E-01
  1.50000000E+00  8.00000000E-01  8.00000000E-01  1.50000000E+00  8.00000000E-01
  8.00000000E-01  1.50000000E+00  8.00000000E-01  8.00000000E-01  1.50000000E+00
  8.00000000E-01  8.00000000E-01  1.50000000E+00  8.00000000E-01  8.00000000E-01
  1.50000000E+00  8.00000000E-01  8.00000000E-01  1.50000000E+00  8.00000000E-01
  8.00000000E-01  1.50000000E+00  8.00000000E-01  8.00000000E-01  1.50000000E+00
  8.00000000E-01  8.00000000E-01  1.50000000E+00  8.00000000E-01  8.00000000E-01
  1.50000000E+00  8.00000000E-01  8.00000000E-01  1.50000000E+00  8.00000000E-01
  8.00000000E-01  1.50000000E+00  8.00000000E-01  8.00000000E-01  1.50000000E+00
  8.00000000E-01  8.00000000E-01  1.50000000E+00  8.00000000E-01  8.00000000E-01
  1.50000000E+00  8.00000000E-01  8.00000000E-01  1.50000000E+00  8.00000000E-01
  8.00000000E-01  1.50000000E+00  8.00000000E-01  8.00000000E-01  1.50000000E+00
  8.00000000E-01  8.00000000E-01  1.50000000E+00  8.00000000E-01  8.00000000E-01
  1.50000000E+00  8.00000000E-01  8.00000000E-01  1.50000000E+00  8.00000000E-01
  8.00000000E-01  1.50000000E+00  8.00000000E-01  8.00000000E-01  1.50000000E+00
  8.00000000E-01  8.00000000E-01  1.50000000E+00  8.00000000E-01  8.00000000E-01
  1.50000000E+00  8.00000000E-01  8.00000000E-01  1.50000000E+00  8.00000000E-01
  8.00000000E-01  1.50000000E+00  8.00000000E-01  8.00000000E-01  1.50000000E+00
  8.00000000E-01  8.00000000E-01  1.50000000E+00  8.00000000E-01  8.00000000E-01
  1.50000000E+00  8.00000000E-01  8.00000000E-01  1.50000000E+00  8.00000000E-01
  8.00000000E-01  1.50000000E+00  8.00000000E-01  8.00000000E-01  1.50000000E+00
  8.00000000E-01  8.00000000E-01  1.50000000E+00  8.00000000E-01  8.00000000E-01
  1.50000000E+00  8.00000000E-01  8.00000000E-01  1.50000000E+00  8.00000000E-01
  8.00000000E-01  1.50000000E+00  8.00000000E-01  8.00000000E-01  1.50000000E+00
  8.00000000E-01  8.00000000E-01  1.50000000E+00  8.00000000E-01  8.00000000E-01
  1.50000000E+00  8.00000000E-01  8.00000000E-01  1.50000000E+00  8.00000000E-01
  8.00000000E-01  1.50000000E+00  8.00000000E-01  8.00000000E-01  1.50000000E+00
  8.00000000E-01  8.00000000E-01  1.50000000E+00  8.00000000E-01  8.00000000E-01
  1.50000000E+00  8.00000000E-01  8.00000000E-01  1.50000000E+00  8.00000000E-01
  8.00000000E-01  1.50000000E+00  8.00000000E-01  8.00000000E-01  1.50000000E+00
  8.00000000E-01  8.00000000E-01  1.50000000E+00  8.00000000E-01  8.00000000E-01
  1.50000000E+00  8.00000000E-01  8.00000000E-01  1.50000000E+00  8.00000000E-01
  8.00000000E-01  1.50000000E+00  8.00000000E-01  8.00000000E-01  1.50000000E+00
  8.00000000E-01  8.00000000E-01  1.50000000E+00  8.00000000E-01  8.00000000E-01
  1.50000000E+00  8.00000000E-01  8.00000000E-01  1.50000000E+00  8.00000000E-01
  8.00000000E-01  1.50000000E+00  8.00000000E-01  8.00000000E-01  1.50000000E+00
  8.00000000E-01  8.00000000E-01  1.50000000E+00  8.00000000E-01  8.00000000E-01
  1.50000000E+00  8.00000000E-01  8.00000000E-01  1.50000000E+00  8.00000000E-01
  8.00000000E-01  1.50000000E+00  8.00000000E-01  8.00000000E-01  1.50000000E+00
  8.00000000E-01  8.00000000E-01  1.50000000E+00  8.00000000E-01  8.00000000E-01
  1.50000000E+00  8.00000000E-01  8.00000000E-01  1.50000000E+00  8.00000000E-01
  8.00000000E-01  1.50000000E+00  8.00000000E-01  8.00000000E-01  1.50000000E+00
  8.00000000E-01  8.00000000E-01  1.50000000E+00  8.00000000E-01  8.00000000E-01
  1.50000000E+00  8.00000000E-01  8.00000000E-01  1.50000000E+00  8.00000000E-01
  8.00000000E-01  1.50000000E+00  8.00000000E-01  8.00000000E-01  1.50000000E+00
  8.00000000E-01  8.00000000E-01  1.50000000E+00  8.00000000E-01  8.00000000E-01
  1.50000000E+00  8.00000000E-01  8.00000000E-01  1.50000000E+00  8.00000000E-01
  8.00000000E-01  1.50000000E+00  8.00000000E-01  8.00000000E-01  1.50000000E+00
  8.00000000E-01  8.00000000E-01  1.50000000E+00  8.00000000E-01  8.00000000E-01
  1.50000000E+00  8.00000000E-01  8.00000000E-01  1.50000000E+00  8.00000000E-01
  8.00000000E-01  1.50000000E+00  8.00000000E-01  8.00000000E-01  1.50000000E+00
  8.00000000E-01  8.00000000E-01  1.50000000E+00  8.00000000E-01  8.00000000E-01
  1.50000000E+00  8.00000000E-01  8.00000000E-01  1.50000000E+00  8.00000000E-01
  8.00000000E-01  1.50000000E+00  8.00000000E-01  8.00000000E-01  1.50000000E+00
  8.00000000E-01  8.00000000E-01  1.50000000E+00  8.00000000E-01  8.00000000E-01
  1.50000000E+00  8.00000000E-01  8.00000000E-01  1.50000000E+00  8.00000000E-01
  8.00000000E-01  1.50000000E+00  8.00000000E-01  8.00000000E-01  1.50000000E+00
  8.00000000E-01  8.00000000E-01  1.50000000E+00  8.00000000E-01  8.00000000E-01
  1.50000000E+00  8.00000000E-01  8.00000000E-01  1.50000000E+00  8.00000000E-01
  8.00000000E-01  1.50000000E+00  8.00000000E-01  8.00000000E-01  1.50000000E+00
  8.00000000E-01  8.00000000E-01  1.50000000E+00  8.00000000E-01  8.00000000E-01
  1.50000000E+00  8.00000000E-01  8.00000000E-01  1.50000000E+00  8.00000000E-01
  8.00000000E-01  1.50000000E+00  8.00000000E-01  8.00000000E-01  1.50000000E+00
  8.00000000E-01  8.00000000E-01  1.50000000E+00  8.00000000E-01  8.00000000E-01
  1.50000000E+00  8.00000000E-01  8.00000000E-01  1.50000000E+00  8.00000000E-01
  8.00000000E-01  1.50000000E+00  8.00000000E-01  8.00000000E-01  1.50000000E+00
  8.00000000E-01  8.00000000E-01  1.50000000E+00  8.00000000E-01  8.00000000E-01
  1.50000000E+00  8.00000000E-01  8.00000000E-01  1.50000000E+00  8.00000000E-01
  8.00000000E-01  1.50000000E+00  8.00000000E-01  8.00000000E-01  1.50000000E+00
  8.00000000E-01  8.00000000E-01  1.50000000E+00  8.00000000E-01  8.00000000E-01
  1.50000000E+00  8.00000000E-01  8.00000000E-01  1.50000000E+00  8.00000000E-01
  8.00000000E-01  1.50000000E+00  8.00000000E-01  8.00000000E-01  1.50000000E+00
  8.00000000E-01  8.00000000E-01  1.50000000E+00  8.00000000E-01  8.00000000E-01
  1.50000000E+00  8.00000000E-01  8.00000000E-01  1.50000000E+00  8.00000000E-01
  8.00000000E-01  1.50000000E+00  8.00000000E-01  8.00000000E-01  1.50000000E+00
  8.00000000E-01  8.00000000E-01  1.50000000E+00  8.00000000E-01  8.00000000E-01
  1.50000000E+00  8.00000000E-01  8.00000000E-01  1.50000000E+00  8.00000000E-01
  8.00000000E-01  1.50000000E+00  8.00000000E-01  8.00000000E-01  1.50000000E+00
  8.00000000E-01  8.00000000E-01  1.50000000E+00  8.00000000E-01  8.00000000E-01
  1.50000000E+00  8.00000000E-01  8.00000000E-01  1.50000000E+00  8.00000000E-01
  8.00000000E-01  1.50000000E+00  8.00000000E-01  8.00000000E-01  1.50000000E+00
  8.00000000E-01  8.00000000E-01  1.50000000E+00  8.00000000E-01  8.00000000E-01
  1.50000000E+00  8.00000000E-01  8.00000000E-01  1.50000000E+00  8.00000000E-01
  8.00000000E-01  1.50000000E+00  8.00000000E-01  8.00000000E-01  1.50000000E+00
  8.00000000E-01  8.00000000E-01  1.50000000E+00  8.00000000E-01  8.00000000E-01
  1.50000000E+00  8.00000000E-01  8.00000000E-01  1.50000000E+00  8.00000000E-01
  8.00000000E-01  1.50000000E+00  8.00000000E-01  8.00000000E-01  1.50000000E+00
  8.00000000E-01  8.00000000E-01  1.50000000E+00  8.00000000E-01  8.00000000E-01
  1.50000000E+00  8.00000000E-01  8.00000000E-01  1.50000000E+00  8.00000000E-01
  8.00000000E-01  1.50000000E+00  8.00000000E-01  8.00000000E-01  1.50000000E+00
  8.00000000E-01  8.00000000E-01  1.50000000E+00  8.00000000E-01  8.00000000E-01
  1.50000000E+00  8.00000000E-01  8.00000000E-01  1.50000000E+00  8.00000000E-01
  8.00000000E-01  1.50000000E+00  8.00000000E-01  8.00000000E-01  1.50000000E+00
  8.00000000E-01  8.00000000E-01  1.50000000E+00  8.00000000E-01  8.00000000E-01
  1.50000000E+00  8.00000000E-01  8.00000000E-01  1.50000000E+00  8.00000000E-01
  8.00000000E-01  1.50000000E+00  8.00000000E-01  8.00000000E-01  1.50000000E+00
  8.00000000E-01  8.00000000E-01  1.50000000E+00  8.00000000E-01  8.00000000E-01
  1.50000000E+00  8.00000000E-01  8.00000000E-01  1.50000000E+00  8.00000000E-01
  8.00000000E-01  1.50000000E+00  8.00000000E-01  8.00000000E-01  1.50000000E+00
  8.00000000E-01  8.00000000E-01  1.50000000E+00  8.00000000E-01  8.00000000E-01
  1.50000000E+00  8.00000000E-01  8.00000000E-01  1.50000000E+00  8.00000000E-01
  8.00000000E-01  1.50000000E+00  8.00000000E-01  8.00000000E-01  1.50000000E+00
  8.00000000E-01  8.00000000E-01  1.50000000E+00  8.00000000E-01  8.00000000E-01
  1.50000000E+00  8.00000000E-01  8.00000000E-01  1.50000000E+00  8.00000000E-01
  8.00000000E-01  1.50000000E+00  8.00000000E-01  8.00000000E-01  1.50000000E+00
  8.00000000E-01  8.00000000E-01  1.50000000E+00  8.00000000E-01  8.00000000E-01
  1.50000000E+00  8.00000000E-01  8.00000000E-01  1.50000000E+00  8.00000000E-01
  8.00000000E-01  1.50000000E+00  8.00000000E-01  8.00000000E-01  1.50000000E+00
  8.00000000E-01  8.00000000E-01  1.50000000E+00  8.00000000E-01  8.00000000E-01
  1.50000000E+00  8.00000000E-01  8.00000000E-01  1.50000000E+00  8.00000000E-01
  8.00000000E-01  1.50000000E+00  8.00000000E-01  8.00000000E-01  1.50000000E+00
  8.00000000E-01  8.00000000E-01  1.50000000E+00  8.00000000E-01  8.00000000E-01
  1.50000000E+00  8.00000000E-01  8.00000000E-01  1.50000000E+00  8.00000000E-01
  8.00000000E-01  1.50000000E+00  8.00000000E-01  8.00000000E-01  1.50000000E+00
  8.00000000E-01  8.00000000E-01  1.50000000E+00  8.00000000E-01  8.00000000E-01
  1.50000000E+00  8.00000000E-01  8.00000000E-01  1.50000000E+00  8.00000000E-01
  8.00000000E-01  1.50000000E+00  8.00000000E-01  8.00000000E-01  1.50000000E+00
  8.00000000E-01  8.00000000E-01  1.50000000E+00  8.00000000E-01  8.00000000E-01
  1.50000000E+00  8.00000000E-01  8.00000000E-01  1.50000000E+00  8.00000000E-01
  8.00000000E-01  1.50000000E+00  8.00000000E-01  8.00000000E-01  1.50000000E+00
  8.00000000E-01  8.00000000E-01  1.50000000E+00  8.00000000E-01  8.00000000E-01
  1.50000000E+00  8.00000000E-01  8.00000000E-01  1.50000000E+00  8.00000000E-01
  8.00000000E-01  1.50000000E+00  8.00000000E-01  8.00000000E-01  1.50000000E+00
  8.00000000E-01  8.00000000E-01  1.50000000E+00  8.00000000E-01  8.00000000E-01
  1.50000000E+00  8.00000000E-01  8.00000000E-01  1.50000000E+00  8.00000000E-01
  8.00000000E-01  1.50000000E+00  8.00000000E-01  8.00000000E-01  1.50000000E+00
  8.00000000E-01  8.00000000E-01  1.50000000E+00  8.00000000E-01  8.00000000E-01
  1.50000000E+00  8.00000000E-01  8.00000000E-01  1.50000000E+00  8.00000000E-01
  8.00000000E-01  1.50000000E+00  8.00000000E-01  8.00000000E-01  1.50000000E+00
  8.00000000E-01  8.00000000E-01  1.50000000E+00  8.00000000E-01  8.00000000E-01
  1.50000000E+00  8.00000000E-01  8.00000000E-01  1.50000000E+00  8.00000000E-01
  8.00000000E-01  1.50000000E+00  8.00000000E-01  8.00000000E-01  1.50000000E+00
  8.00000000E-01  8.00000000E-01  1.50000000E+00  8.00000000E-01  8.00000000E-01
  1.50000000E+00  8.00000000E-01  8.00000000E-01  1.50000000E+00  8.00000000E-01
  8.00000000E-01  1.50000000E+00  8.00000000E-01  8.00000000E-01  1.50000000E+00
  8.00000000E-01  8.00000000E-01  1.50000000E+00  8.00000000E-01  8.00000000E-01
  1.50000000E+00  8.00000000E-01  8.00000000E-01  1.50000000E+00  8.00000000E-01
  8.00000000E-01  1.50000000E+00  8.00000000E-01  8.00000000E-01  1.50000000E+00
  8.00000000E-01  8.00000000E-01  1.50000000E+00  8.00000000E-01  8.00000000E-01
  1.50000000E+00  8.00000000E-01  8.00000000E-01  1.50000000E+00  8.00000000E-01
  8.00000000E-01  1.50000000E+00  8.00000000E-01  8.00000000E-01  1.50000000E+00
  8.00000000E-01  8.00000000E-01  1.50000000E+00  8.00000000E-01  8.00000000E-01
  1.50000000E+00  8.00000000E-01  8.00000000E-01  1.50000000E+00  8.00000000E-01
  8.00000000E-01  1.50000000E+00  8.00000000E-01  8.00000000E-01  1.50000000E+00
  8.00000000E-01  8.00000000E-01  1.50000000E+00  8.00000000E-01  8.00000000E-01
  1.50000000E+00  8.00000000E-01  8.00000000E-01  1.50000000E+00  8.00000000E-01
  8.00000000E-01  1.50000000E+00  8.00000000E-01  8.00000000E-01  1.50000000E+00
  8.00000000E-01  8.00000000E-01  1.50000000E+00  8.00000000E-01  8.00000000E-01
  1.50000000E+00  8.00000000E-01  8.00000000E-01  1.50000000E+00  8.00000000E-01
  8.00000000E-01  1.50000000E+00  8.00000000E-01  8.00000000E-01  1.50000000E+00
  8.00000000E-01  8.00000000E-01  1.50000000E+00  8.00000000E-01  8.00000000E-01
  1.50000000E+00  8.00000000E-01  8.00000000E-01  1.50000000E+00  8.00000000E-01
  8.00000000E-01  1.50000000E+00  8.00000000E-01  8.00000000E-01  1.50000000E+00
  8.00000000E-01  8.00000000E-01  1.50000000E+00  8.00000000E-01  8.00000000E-01
  1.50000000E+00  8.00000000E-01  8.00000000E-01  1.50000000E+00  8.00000000E-01
  8.00000000E-01  1.50000000E+00  8.00000000E-01  8.00000000E-01  1.50000000E+00
  8.00000000E-01  8.00000000E-01  1.50000000E+00  8.00000000E-01  8.00000000E-01
  1.50000000E+00  8.00000000E-01  8.00000000E-01  1.50000000E+00  8.00000000E-01
  8.00000000E-01  1.50000000E+00  8.00000000E-01  8.00000000E-01  1.50000000E+00
  8.00000000E-01  8.00000000E-01  1.50000000E+00  8.00000000E-01  8.00000000E-01
  1.50000000E+00  8.00000000E-01  8.00000000E-01  1.50000000E+00  8.00000000E-01
  8.00000000E-01  1.50000000E+00  8.00000000E-01  8.00000000E-01  1.50000000E+00
  8.00000000E-01  8.00000000E-01  1.50000000E+00  8.00000000E-01  8.00000000E-01
  1.50000000E+00  8.00000000E-01  8.00000000E-01  1.50000000E+00  8.00000000E-01
  8.00000000E-01  1.50000000E+00  8.00000000E-01  8.00000000E-01  1.50000000E+00
  8.00000000E-01  8.00000000E-01  1.50000000E+00  8.00000000E-01  8.00000000E-01
  1.50000000E+00  8.00000000E-01  8.00000000E-01  1.50000000E+00  8.00000000E-01
  8.00000000E-01  1.50000000E+00  8.00000000E-01  8.00000000E-01  1.50000000E+00
  8.00000000E-01  8.00000000E-01  1.50000000E+00  8.00000000E-01  8.00000000E-01
  1.50000000E+00  8.00000000E-01  8.00000000E-01  1.50000000E+00  8.00000000E-01
  8.00000000E-01  1.50000000E+00  8.00000000E-01  8.00000000E-01  1.50000000E+00
  8.00000000E-01  8.00000000E-01  1.50000000E+00  8.00000000E-01  8.00000000E-01
  1.50000000E+00  8.00000000E-01  8.00000000E-01  1.50000000E+00  8.00000000E-01
  8.00000000E-01  1.50000000E+00  8.00000000E-01  8.00000000E-01  1.50000000E+00
  8.00000000E-01  8.00000000E-01  1.50000000E+00  8.00000000E-01  8.00000000E-01
  1.50000000E+00  8.00000000E-01  8.00000000E-01  1.50000000E+00  8.00000000E-01
  8.00000000E-01  1.50000000E+00  8.00000000E-01  8.00000000E-01  1.50000000E+00
  8.00000000E-01  8.00000000E-01  1.50000000E+00  8.00000000E-01  8.00000000E-01
  1.50000000E+00  8.00000000E-01  8.00000000E-01  1.50000000E+00  8.00000000E-01
  8.00000000E-01  1.50000000E+00  8.00000000E-01  8.00000000E-01  1.50000000E+00
  8.00000000E-01  8.00000000E-01  1.50000000E+00  8.00000000E-01  8.00000000E-01
  1.50000000E+00  8.00000000E-01  8.00000000E-01  1.50000000E+00  8.00000000E-01
  8.00000000E-01  1.50000000E+00  8.00000000E-01  8.00000000E-01  1.50000000E+00
  8.00000000E-01  8.00000000E-01  1.50000000E+00  8.00000000E-01  8.00000000E-01
  1.50000000E+00  8.00000000E-01  8.00000000E-01  1.50000000E+00  8.00000000E-01
  8.00000000E-01  1.50000000E+00  8.00000000E-01  8.00000000E-01  1.50000000E+00
  8.00000000E-01  8.00000000E-01  1.50000000E+00  8.00000000E-01  8.00000000E-01
  1.50000000E+00  8.00000000E-01  8.00000000E-01  1.50000000E+00  8.00000000E-01
  8.00000000E-01  1.50000000E+00  8.00000000E-01  8.00000000E-01  1.50000000E+00
  8.00000000E-01  8.00000000E-01  1.50000000E+00  8.00000000E-01  8.00000000E-01
  1.50000000E+00  8.00000000E-01  8.00000000E-01  1.50000000E+00  8.00000000E-01
  8.00000000E-01  1.50000000E+00  8.00000000E-01  8.00000000E-01  1.50000000E+00
  8.00000000E-01  8.00000000E-01  1.50000000E+00  8.00000000E-01  8.00000000E-01
  1.50000000E+00  8.00000000E-01  8.00000000E-01  1.50000000E+00  8.00000000E-01
  8.00000000E-01  1.50000000E+00  8.00000000E-01  8.00000000E-01  1.50000000E+00
  8.00000000E-01  8.00000000E-01  1.50000000E+00  8.00000000E-01  8.00000000E-01
  1.50000000E+00  8.00000000E-01  8.00000000E-01  1.50000000E+00  8.00000000E-01
  8.00000000E-01  1.50000000E+00  8.00000000E-01  8.00000000E-01  1.50000000E+00
  8.00000000E-01  8.00000000E-01  1.50000000E+00  8.00000000E-01  8.00000000E-01
  1.50000000E+00  8.00000000E-01  8.00000000E-01  1.50000000E+00  8.00000000E-01
  8.00000000E-01  1.50000000E+00  8.00000000E-01  8.00000000E-01  1.50000000E+00
  8.00000000E-01  8.00000000E-01  1.50000000E+00  8.00000000E-01  8.00000000E-01
  1.50000000E+00  8.00000000E-01  8.00000000E-01  1.50000000E+00  8.00000000E-01
  8.00000000E-01  1.50000000E+00  8.00000000E-01  8.00000000E-01  1.50000000E+00
  8.00000000E-01  8.00000000E-01  1.50000000E+00  8.00000000E-01  8.00000000E-01
  1.50000000E+00  8.00000000E-01  8.00000000E-01  1.50000000E+00  8.00000000E-01
  8.00000000E-01  1.50000000E+00  8.00000000E-01  8.00000000E-01  1.50000000E+00
  8.00000000E-01  8.00000000E-01  1.50000000E+00  8.00000000E-01  8.00000000E-01
  1.50000000E+00  8.00000000E-01  8.00000000E-01  1.50000000E+00  8.00000000E-01
  8.00000000E-01  1.50000000E+00  8.00000000E-01  8.00000000E-01  1.50000000E+00
  8.00000000E-01  8.00000000E-01  1.50000000E+00  8.00000000E-01  8.00000000E-01
  1.50000000E+00  8.00000000E-01  8.00000000E-01  1.50000000E+00  8.00000000E-01
  8.00000000E-01  1.50000000E+00  8.00000000E-01  8.00000000E-01  1.50000000E+00
  8.00000000E-01  8.00000000E-01  1.50000000E+00  8.00000000E-01  8.00000000E-01
  1.50000000E+00  8.00000000E-01  8.00000000E-01  1.50000000E+00  8.00000000E-01
  8.00000000E-01  1.50000000E+00  8.00000000E-01  8.00000000E-01  1.50000000E+00
  8.00000000E-01  8.00000000E-01  1.50000000E+00  8.00000000E-01  8.00000000E-01
  1.50000000E+00  8.00000000E-01  8.00000000E-01  1.50000000E+00  8.00000000E-01
  8.00000000E-01  1.50000000E+00  8.00000000E-01  8.00000000E-01  1.50000000E+00
  8.00000000E-01  8.00000000E-01  1.50000000E+00  8.00000000E-01  8.00000000E-01
  1.50000000E+00  8.00000000E-01  8.00000000E-01  1.50000000E+00  8.00000000E-01
  8.00000000E-01  1.50000000E+00  8.00000000E-01  8.00000000E-01  1.50000000E+00
  8.00000000E-01  8.00000000E-01  1.50000000E+00  8.00000000E-01  8.00000000E-01
  1.50000000E+00  8.00000000E-01  8.00000000E-01  1.50000000E+00  8.00000000E-01
  8.00000000E-01  1.50000000E+00  8.00000000E-01  8.00000000E-01  1.50000000E+00
  8.00000000E-01  8.00000000E-01  1.50000000E+00  8.00000000E-01  8.00000000E-01
  1.50000000E+00  8.00000000E-01  8.00000000E-01  1.50000000E+00  8.00000000E-01
  8.00000000E-01  1.50000000E+00  8.00000000E-01  8.00000000E-01  1.50000000E+00
  8.00000000E-01  8.00000000E-01  1.50000000E+00  8.00000000E-01  8.00000000E-01
  1.50000000E+00  8.00000000E-01  8.00000000E-01  1.50000000E+00  8.00000000E-01
  8.00000000E-01  1.50000000E+00  8.00000000E-01  8.00000000E-01  1.50000000E+00
  8.00000000E-01  8.00000000E-01  1.50000000E+00  8.00000000E-01  8.00000000E-01
  1.50000000E+00  8.00000000E-01  8.00000000E-01  1.50000000E+00  8.00000000E-01
  8.00000000E-01  1.50000000E+00  8.00000000E-01  8.00000000E-01  1.50000000E+00
  8.00000000E-01  8.00000000E-01  1.50000000E+00  8.00000000E-01  8.00000000E-01
  1.50000000E+00  8.00000000E-01  8.00000000E-01  1.50000000E+00  8.00000000E-01
  8.00000000E-01  1.50000000E+00  8.00000000E-01  8.00000000E-01  1.50000000E+00
  8.00000000E-01  8.00000000E-01  1.50000000E+00  8.00000000E-01  8.00000000E-01
  1.50000000E+00  8.00000000E-01  8.00000000E-01  1.50000000E+00  8.00000000E-01
  8.00000000E-01  1.50000000E+00  8.00000000E-01  8.00000000E-01  1.50000000E+00
  8.00000000E-01  8.00000000E-01  1.50000000E+00  8.00000000E-01  8.00000000E-01
  1.50000000E+00  8.00000000E-01  8.00000000E-01  1.50000000E+00  8.00000000E-01
  8.00000000E-01  1.50000000E+00  8.00000000E-01  8.00000000E-01  1.50000000E+00
  8.00000000E-01  8.00000000E-01  1.50000000E+00  8.00000000E-01  8.00000000E-01
  1.50000000E+00  8.00000000E-01  8.00000000E-01  1.50000000E+00  8.00000000E-01
  8.00000000E-01  1.50000000E+00  8.00000000E-01  8.00000000E-01  1.50000000E+00
  8.00000000E-01  8.00000000E-01  1.50000000E+00  8.00000000E-01  8.00000000E-01
  1.50000000E+00  8.00000000E-01  8.00000000E-01  1.50000000E+00  8.00000000E-01
  8.00000000E-01  1.50000000E+00  8.00000000E-01  8.00000000E-01  1.50000000E+00
  8.00000000E-01  8.00000000E-01  1.50000000E+00  8.00000000E-01  8.00000000E-01
  1.50000000E+00  8.00000000E-01  8.00000000E-01  1.50000000E+00  8.00000000E-01
  8.00000000E-01  1.50000000E+00  8.00000000E-01  8.00000000E-01  1.50000000E+00
  8.00000000E-01  8.00000000E-01  1.50000000E+00  8.00000000E-01  8.00000000E-01
  1.50000000E+00  8.00000000E-01  8.00000000E-01  1.50000000E+00  8.00000000E-01
  8.00000000E-01  1.50000000E+00  8.00000000E-01  8.00000000E-01  1.50000000E+00
  8.00000000E-01  8.00000000E-01  1.50000000E+00  8.00000000E-01  8.00000000E-01
  1.50000000E+00  8.00000000E-01  8.00000000E-01  1.50000000E+00  8.00000000E-01
  8.00000000E-01  1.50000000E+00  8.00000000E-01  8.00000000E-01  1.50000000E+00
  8.00000000E-01  8.00000000E-01  1.50000000E+00  8.00000000E-01  8.00000000E-01
  1.50000000E+00  8.00000000E-01  8.00000000E-01  1.50000000E+00  8.00000000E-01
  8.00000000E-01  1.50000000E+00  8.00000000E-01  8.00000000E-01  1.50000000E+00
  8.00000000E-01  8.00000000E-01  1.50000000E+00  8.00000000E-01  8.00000000E-01
  1.50000000E+00  8.00000000E-01  8.00000000E-01  1.50000000E+00  8.00000000E-01
  8.00000000E-01  1.50000000E+00  8.00000000E-01  8.00000000E-01  1.50000000E+00
  8.00000000E-01  8.00000000E-01  1.50000000E+00  8.00000000E-01  8.00000000E-01
  1.50000000E+00  8.00000000E-01  8.00000000E-01  1.50000000E+00  8.00000000E-01
  8.00000000E-01  1.50000000E+00  8.00000000E-01  8.00000000E-01  1.50000000E+00
  8.00000000E-01  8.00000000E-01  1.50000000E+00  8.00000000E-01  8.00000000E-01
  1.50000000E+00  8.00000000E-01  8.00000000E-01  1.50000000E+00  8.00000000E-01
  8.00000000E-01  1.50000000E+00  8.00000000E-01  8.00000000E-01  1.50000000E+00
  8.00000000E-01  8.00000000E-01  1.50000000E+00  8.00000000E-01  8.00000000E-01
  1.50000000E+00  8.00000000E-01  8.00000000E-01  1.50000000E+00  8.00000000E-01
  8.00000000E-01  1.50000000E+00  8.00000000E-01  8.00000000E-01  1.50000000E+00
  8.00000000E-01  8.00000000E-01  1.50000000E+00  8.00000000E-01  8.00000000E-01
  1.50000000E+00  8.00000000E-01  8.00000000E-01  1.50000000E+00  8.00000000E-01
  8.00000000E-01  1.50000000E+00  8.00000000E-01  8.00000000E-01  1.50000000E+00
  8.00000000E-01  8.00000000E-01  1.50000000E+00  8.00000000E-01  8.00000000E-01
  1.50000000E+00  8.00000000E-01  8.00000000E-01  1.50000000E+00  8.00000000E-01
  8.00000000E-01  1.50000000E+00  8.00000000E-01  8.00000000E-01  1.50000000E+00
  8.00000000E-01  8.00000000E-01  1.50000000E+00  8.00000000E-01  8.00000000E-01
  1.50000000E+00  8.00000000E-01  8.00000000E-01  1.50000000E+00  8.00000000E-01
  8.00000000E-01  1.50000000E+00  8.00000000E-01  8.00000000E-01  1.50000000E+00
  8.00000000E-01  8.00000000E-01  1.50000000E+00  8.00000000E-01  8.00000000E-01
  1.50000000E+00  8.00000000E-01  8.00000000E-01  1.50000000E+00  8.00000000E-01
  8.00000000E-01  1.50000000E+00  8.00000000E-01  8.00000000E-01  1.50000000E+00
  8.00000000E-01  8.00000000E-01  1.50000000E+00  8.00000000E-01  8.00000000E-01
  1.50000000E+00  8.00000000E-01  8.00000000E-01  1.50000000E+00  8.00000000E-01
  8.00000000E-01  1.50000000E+00  8.00000000E-01  8.00000000E-01  1.50000000E+00
  8.00000000E-01  8.00000000E-01  1.50000000E+00  8.00000000E-01  8.00000000E-01
  1.50000000E+00  8.00000000E-01  8.00000000E-01  1.50000000E+00  8.00000000E-01
  8.00000000E-01  1.50000000E+00  8.00000000E-01  8.00000000E-01  1.50000000E+00
  8.00000000E-01  8.00000000E-01  1.50000000E+00  8.00000000E-01  8.00000000E-01
  1.50000000E+00  8.00000000E-01  8.00000000E-01  1.50000000E+00  8.00000000E-01
  8.00000000E-01  1.50000000E+00  8.00000000E-01  8.00000000E-01  1.50000000E+00
  8.00000000E-01  8.00000000E-01  1.50000000E+00  8.00000000E-01  8.00000000E-01
  1.50000000E+00  8.00000000E-01  8.00000000E-01  1.50000000E+00  8.00000000E-01
  8.00000000E-01  1.50000000E+00  8.00000000E-01  8.00000000E-01  1.50000000E+00
  8.00000000E-01  8.00000000E-01  1.50000000E+00  8.00000000E-01  8.00000000E-01
  1.50000000E+00  8.00000000E-01  8.00000000E-01  1.50000000E+00  8.00000000E-01
  8.00000000E-01  1.50000000E+00  8.00000000E-01  8.00000000E-01  1.50000000E+00
  8.00000000E-01  8.00000000E-01  1.50000000E+00  8.00000000E-01  8.00000000E-01
  1.50000000E+00  8.00000000E-01  8.00000000E-01  1.50000000E+00  8.00000000E-01
  8.00000000E-01  1.50000000E+00  8.00000000E-01  8.00000000E-01  1.50000000E+00
  8.00000000E-01  8.00000000E-01  1.50000000E+00  8.00000000E-01  8.00000000E-01
  1.50000000E+00  8.00000000E-01  8.00000000E-01  1.50000000E+00  8.00000000E-01
  8.00000000E-01  1.50000000E+00  8.00000000E-01  8.00000000E-01  1.50000000E+00
  8.00000000E-01  8.00000000E-01  1.50000000E+00  8.00000000E-01  8.00000000E-01
  1.50000000E+00  8.00000000E-01  8.00000000E-01  1.50000000E+00  8.00000000E-01
  8.00000000E-01  1.50000000E+00  8.00000000E-01  8.00000000E-01  1.50000000E+00
  8.00000000E-01  8.00000000E-01  1.50000000E+00  8.00000000E-01  8.00000000E-01
  1.50000000E+00  8.00000000E-01  8.00000000E-01  1.50000000E+00  8.00000000E-01
  8.00000000E-01  1.50000000E+00  8.00000000E-01  8.00000000E-01  1.50000000E+00
  8.00000000E-01  8.00000000E-01  1.50000000E+00  8.00000000E-01  8.00000000E-01
  1.50000000E+00  8.00000000E-01  8.00000000E-01  1.50000000E+00  8.00000000E-01
  8.00000000E-01  1.50000000E+00  8.00000000E-01  8.00000000E-01  1.50000000E+00
  8.00000000E-01  8.00000000E-01  1.50000000E+00  8.00000000E-01  8.00000000E-01
  1.50000000E+00  8.00000000E-01  8.00000000E-01  1.50000000E+00  8.00000000E-01
  8.00000000E-01  1.50000000E+00  8.00000000E-01  8.00000000E-01  1.50000000E+00
  8.00000000E-01  8.00000000E-01  1.50000000E+00  8.00000000E-01  8.00000000E-01
  1.50000000E+00  8.00000000E-01  8.00000000E-01  1.50000000E+00  8.00000000E-01
  8.00000000E-01  1.50000000E+00  8.00000000E-01  8.00000000E-01  1.50000000E+00
  8.00000000E-01  8.00000000E-01  1.50000000E+00  8.00000000E-01  8.00000000E-01
  1.50000000E+00  8.00000000E-01  8.00000000E-01  1.50000000E+00  8.00000000E-01
  8.00000000E-01  1.50000000E+00  8.00000000E-01  8.00000000E-01  1.50000000E+00
  8.00000000E-01  8.00000000E-01  1.50000000E+00  8.00000000E-01  8.00000000E-01
  1.50000000E+00  8.00000000E-01  8.00000000E-01  1.50000000E+00  8.00000000E-01
  8.00000000E-01  1.50000000E+00  8.00000000E-01  8.00000000E-01  1.50000000E+00
  8.00000000E-01  8.00000000E-01  1.50000000E+00  8.00000000E-01  8.00000000E-01
  1.50000000E+00  8.00000000E-01  8.00000000E-01  1.50000000E+00  8.00000000E-01
  8.00000000E-01  1.50000000E+00  8.00000000E-01  8.00000000E-01  1.50000000E+00
  8.00000000E-01  8.00000000E-01  1.50000000E+00  8.00000000E-01  8.00000000E-01
  1.50000000E+00  8.00000000E-01  8.00000000E-01  1.50000000E+00  8.00000000E-01
  8.00000000E-01  1.50000000E+00  8.00000000E-01  8.00000000E-01  1.50000000E+00
  8.00000000E-01  8.00000000E-01  1.50000000E+00  8.00000000E-01  8.00000000E-01
  1.50000000E+00  8.00000000E-01  8.00000000E-01  1.50000000E+00  8.00000000E-01
  8.00000000E-01  1.50000000E+00  8.00000000E-01  8.00000000E-01  1.50000000E+00
  8.00000000E-01  8.00000000E-01  1.50000000E+00  8.00000000E-01  8.00000000E-01
  1.50000000E+00  8.00000000E-01  8.00000000E-01  1.50000000E+00  8.00000000E-01
  8.00000000E-01  1.50000000E+00  8.00000000E-01  8.00000000E-01  1.50000000E+00
  8.00000000E-01  8.00000000E-01  1.50000000E+00  8.00000000E-01  8.00000000E-01
  1.50000000E+00  8.00000000E-01  8.00000000E-01  1.50000000E+00  8.00000000E-01
  8.00000000E-01  1.50000000E+00  8.00000000E-01  8.00000000E-01  1.50000000E+00
  8.00000000E-01  8.00000000E-01  1.50000000E+00  8.00000000E-01  8.00000000E-01
  1.50000000E+00  8.00000000E-01  8.00000000E-01  1.50000000E+00  8.00000000E-01
  8.00000000E-01  1.50000000E+00  8.00000000E-01  8.00000000E-01  1.50000000E+00
  8.00000000E-01  8.00000000E-01  1.50000000E+00  8.00000000E-01  8.00000000E-01
  1.50000000E+00  8.00000000E-01  8.00000000E-01  1.50000000E+00  8.00000000E-01
  8.00000000E-01  1.50000000E+00  8.00000000E-01  8.00000000E-01  1.50000000E+00
  8.00000000E-01  8.00000000E-01  1.50000000E+00  8.00000000E-01  8.00000000E-01
  1.50000000E+00  8.00000000E-01  8.00000000E-01  1.50000000E+00  8.00000000E-01
  8.00000000E-01  1.50000000E+00  8.00000000E-01  8.00000000E-01  1.50000000E+00
  8.00000000E-01  8.00000000E-01  1.50000000E+00  8.00000000E-01  8.00000000E-01
  1.50000000E+00  8.00000000E-01  8.00000000E-01  1.50000000E+00  8.00000000E-01
  8.00000000E-01  1.50000000E+00  8.00000000E-01  8.00000000E-01  1.50000000E+00
  8.00000000E-01  8.00000000E-01  1.50000000E+00  8.00000000E-01  8.00000000E-01
  1.50000000E+00  8.00000000E-01  8.00000000E-01  1.50000000E+00  8.00000000E-01
  8.00000000E-01  1.50000000E+00  8.00000000E-01  8.00000000E-01  1.50000000E+00
  8.00000000E-01  8.00000000E-01  1.50000000E+00  8.00000000E-01  8.00000000E-01
  1.50000000E+00  8.00000000E-01  8.00000000E-01  1.50000000E+00  8.00000000E-01
  8.00000000E-01  1.50000000E+00  8.00000000E-01  8.00000000E-01  1.50000000E+00
  8.00000000E-01  8.00000000E-01  1.50000000E+00  8.00000000E-01  8.00000000E-01
  1.50000000E+00  8.00000000E-01  8.00000000E-01  1.50000000E+00  8.00000000E-01
  8.00000000E-01  1.50000000E+00  8.00000000E-01  8.00000000E-01  1.50000000E+00
  8.00000000E-01  8.00000000E-01  1.50000000E+00  8.00000000E-01  8.00000000E-01
  1.50000000E+00  8.00000000E-01  8.00000000E-01  1.50000000E+00  8.00000000E-01
  8.00000000E-01  1.50000000E+00  8.00000000E-01  8.00000000E-01  1.50000000E+00
  8.00000000E-01  8.00000000E-01  1.50000000E+00  8.00000000E-01  8.00000000E-01
  1.50000000E+00  8.00000000E-01  8.00000000E-01  1.50000000E+00  8.00000000E-01
  8.00000000E-01  1.50000000E+00  8.00000000E-01  8.00000000E-01  1.50000000E+00
  8.00000000E-01  8.00000000E-01  1.50000000E+00  8.00000000E-01  8.00000000E-01
  1.50000000E+00  8.00000000E-01  8.00000000E-01  1.50000000E+00  8.00000000E-01
  8.00000000E-01  1.50000000E+00  8.00000000E-01  8.00000000E-01  1.50000000E+00
  8.00000000E-01  8.00000000E-01  1.50000000E+00  8.00000000E-01  8.00000000E-01
  1.50000000E+00  8.00000000E-01  8.00000000E-01  1.50000000E+00  8.00000000E-01
  8.00000000E-01  1.50000000E+00  8.00000000E-01  8.00000000E-01  1.50000000E+00
  8.00000000E-01  8.00000000E-01  1.50000000E+00  8.00000000E-01  8.00000000E-01
  1.50000000E+00  8.00000000E-01  8.00000000E-01  1.50000000E+00  8.00000000E-01
  8.00000000E-01  1.50000000E+00  8.00000000E-01  8.00000000E-01  1.50000000E+00
  8.00000000E-01  8.00000000E-01  1.50000000E+00  8.00000000E-01  8.00000000E-01
  1.50000000E+00  8.00000000E-01  8.00000000E-01  1.50000000E+00  8.00000000E-01
  8.00000000E-01  1.50000000E+00  8.00000000E-01  8.00000000E-01  1.50000000E+00
  8.00000000E-01  8.00000000E-01  1.50000000E+00  8.00000000E-01  8.00000000E-01
  1.50000000E+00  8.00000000E-01  8.00000000E-01  1.50000000E+00  8.00000000E-01
  8.00000000E-01  1.50000000E+00  8.00000000E-01  8.00000000E-01  1.50000000E+00
  8.00000000E-01  8.00000000E-01  1.50000000E+00  8.00000000E-01  8.00000000E-01
  1.50000000E+00  8.00000000E-01  8.00000000E-01  1.50000000E+00  8.00000000E-01
  8.00000000E-01  1.50000000E+00  8.00000000E-01  8.00000000E-01  1.50000000E+00
  8.00000000E-01  8.00000000E-01  1.50000000E+00  8.00000000E-01  8.00000000E-01
  1.50000000E+00  8.00000000E-01  8.00000000E-01  1.50000000E+00  8.00000000E-01
  8.00000000E-01  1.50000000E+00  8.00000000E-01  8.00000000E-01  1.50000000E+00
  8.00000000E-01  8.00000000E-01  1.50000000E+00  8.00000000E-01  8.00000000E-01
  1.50000000E+00  8.00000000E-01  8.00000000E-01  1.50000000E+00  8.00000000E-01
  8.00000000E-01  1.50000000E+00  8.00000000E-01  8.00000000E-01  1.50000000E+00
  8.00000000E-01  8.00000000E-01  1.50000000E+00  8.00000000E-01  8.00000000E-01
  1.50000000E+00  8.00000000E-01  8.00000000E-01  1.50000000E+00  8.00000000E-01
  8.00000000E-01  1.50000000E+00  8.00000000E-01  8.00000000E-01  1.50000000E+00
  8.00000000E-01  8.00000000E-01  1.50000000E+00  8.00000000E-01  8.00000000E-01
  1.50000000E+00  8.00000000E-01  8.00000000E-01  1.50000000E+00  8.00000000E-01
  8.00000000E-01  1.50000000E+00  8.00000000E-01  8.00000000E-01  1.50000000E+00
  8.00000000E-01  8.00000000E-01  1.50000000E+00  8.00000000E-01  8.00000000E-01
  1.50000000E+00  8.00000000E-01  8.00000000E-01  1.50000000E+00  8.00000000E-01
  8.00000000E-01  1.50000000E+00  8.00000000E-01  8.00000000E-01  1.50000000E+00
  8.00000000E-01  8.00000000E-01  1.50000000E+00  8.00000000E-01  8.00000000E-01
  1.50000000E+00  8.00000000E-01  8.00000000E-01  1.50000000E+00  8.00000000E-01
  8.00000000E-01  1.50000000E+00  8.00000000E-01  8.00000000E-01  1.50000000E+00
  8.00000000E-01  8.00000000E-01  1.50000000E+00  8.00000000E-01  8.00000000E-01
  1.50000000E+00  8.00000000E-01  8.00000000E-01  1.50000000E+00  8.00000000E-01
  8.00000000E-01  1.50000000E+00  8.00000000E-01  8.00000000E-01  1.50000000E+00
  8.00000000E-01  8.00000000E-01  1.50000000E+00  8.00000000E-01  8.00000000E-01
  1.50000000E+00  8.00000000E-01  8.00000000E-01  1.50000000E+00  8.00000000E-01
  8.00000000E-01  1.50000000E+00  8.00000000E-01  8.00000000E-01  1.50000000E+00
  8.00000000E-01  8.00000000E-01  1.50000000E+00  8.00000000E-01  8.00000000E-01
  1.50000000E+00  8.00000000E-01  8.00000000E-01  1.50000000E+00  8.00000000E-01
  8.00000000E-01  1.50000000E+00  8.00000000E-01  8.00000000E-01  1.50000000E+00
  8.00000000E-01  8.00000000E-01  1.50000000E+00  8.00000000E-01  8.00000000E-01
  1.50000000E+00  8.00000000E-01  8.00000000E-01  1.50000000E+00  8.00000000E-01
  8.00000000E-01  1.50000000E+00  8.00000000E-01  8.00000000E-01  1.50000000E+00
  8.00000000E-01  8.00000000E-01  1.50000000E+00  8.00000000E-01  8.00000000E-01
  1.50000000E+00  8.00000000E-01  8.00000000E-01  1.50000000E+00  8.00000000E-01
  8.00000000E-01  1.50000000E+00  8.00000000E-01  8.00000000E-01  1.50000000E+00
  8.00000000E-01  8.00000000E-01  1.50000000E+00  8.00000000E-01  8.00000000E-01
  1.50000000E+00  8.00000000E-01  8.00000000E-01  1.50000000E+00  8.00000000E-01
  8.00000000E-01  1.50000000E+00  8.00000000E-01  8.00000000E-01  1.50000000E+00
  8.00000000E-01  8.00000000E-01  1.50000000E+00  8.00000000E-01  8.00000000E-01
  1.50000000E+00  8.00000000E-01  8.00000000E-01  1.50000000E+00  8.00000000E-01
  8.00000000E-01  1.50000000E+00  8.00000000E-01  8.00000000E-01  1.50000000E+00
  8.00000000E-01  8.00000000E-01  1.50000000E+00  8.00000000E-01  8.00000000E-01
  1.50000000E+00  8.00000000E-01  8.00000000E-01  1.50000000E+00  8.00000000E-01
  8.00000000E-01  1.50000000E+00  8.00000000E-01  8.00000000E-01  1.50000000E+00
  8.00000000E-01  8.00000000E-01  1.50000000E+00  8.00000000E-01  8.00000000E-01
  1.50000000E+00  8.00000000E-01  8.00000000E-01  1.50000000E+00  8.00000000E-01
  8.00000000E-01  1.50000000E+00  8.00000000E-01  8.00000000E-01  1.50000000E+00
  8.00000000E-01  8.00000000E-01  1.50000000E+00  8.00000000E-01  8.00000000E-01
  1.50000000E+00  8.00000000E-01  8.00000000E-01  1.50000000E+00  8.00000000E-01
  8.00000000E-01  1.50000000E+00  8.00000000E-01  8.00000000E-01  1.50000000E+00
  8.00000000E-01  8.00000000E-01  1.50000000E+00  8.00000000E-01  8.00000000E-01
  1.50000000E+00  8.00000000E-01  8.00000000E-01  1.50000000E+00  8.00000000E-01
  8.00000000E-01  1.50000000E+00  8.00000000E-01  8.00000000E-01  1.50000000E+00
  8.00000000E-01  8.00000000E-01  1.50000000E+00  8.00000000E-01  8.00000000E-01
  1.50000000E+00  8.00000000E-01  8.00000000E-01  1.50000000E+00  8.00000000E-01
  8.00000000E-01  1.50000000E+00  8.00000000E-01  8.00000000E-01  1.50000000E+00
  8.00000000E-01  8.00000000E-01  1.50000000E+00  8.00000000E-01  8.00000000E-01
  1.50000000E+00  8.00000000E-01  8.00000000E-01  1.50000000E+00  8.00000000E-01
  8.00000000E-01  1.50000000E+00  8.00000000E-01  8.00000000E-01  1.50000000E+00
  8.00000000E-01  8.00000000E-01  1.50000000E+00  8.00000000E-01  8.00000000E-01
  1.50000000E+00  8.00000000E-01  8.00000000E-01  1.50000000E+00  8.00000000E-01
  8.00000000E-01  1.50000000E+00  8.00000000E-01  8.00000000E-01  1.50000000E+00
  8.00000000E-01  8.00000000E-01  1.50000000E+00  8.00000000E-01  8.00000000E-01
  1.50000000E+00  8.00000000E-01  8.00000000E-01  1.50000000E+00  8.00000000E-01
  8.00000000E-01  1.50000000E+00  8.00000000E-01  8.00000000E-01  1.50000000E+00
  8.00000000E-01  8.00000000E-01  1.50000000E+00  8.00000000E-01  8.00000000E-01
  1.50000000E+00  8.00000000E-01  8.00000000E-01  1.50000000E+00  8.00000000E-01
  8.00000000E-01  1.50000000E+00  8.00000000E-01  8.00000000E-01  1.50000000E+00
  8.00000000E-01  8.00000000E-01  1.50000000E+00  8.00000000E-01  8.00000000E-01
  1.50000000E+00  8.00000000E-01  8.00000000E-01  1.50000000E+00  8.00000000E-01
  8.00000000E-01  1.50000000E+00  8.00000000E-01  8.00000000E-01  1.50000000E+00
  8.00000000E-01  8.00000000E-01  1.50000000E+00  8.00000000E-01  8.00000000E-01
  1.50000000E+00  8.00000000E-01  8.00000000E-01  1.50000000E+00  8.00000000E-01
  8.00000000E-01  1.50000000E+00  8.00000000E-01  8.00000000E-01  1.50000000E+00
  8.00000000E-01  8.00000000E-01  1.50000000E+00  8.00000000E-01  8.00000000E-01
  1.50000000E+00  8.00000000E-01  8.00000000E-01  1.50000000E+00  8.00000000E-01
  8.00000000E-01  1.50000000E+00  8.00000000E-01  8.00000000E-01  1.50000000E+00
  8.00000000E-01  8.00000000E-01  1.50000000E+00  8.00000000E-01  8.00000000E-01
  1.50000000E+00  8.00000000E-01  8.00000000E-01  1.50000000E+00  8.00000000E-01
  8.00000000E-01  1.50000000E+00  8.00000000E-01  8.00000000E-01  1.50000000E+00
  8.00000000E-01  8.00000000E-01  1.50000000E+00  8.00000000E-01  8.00000000E-01
  1.50000000E+00  8.00000000E-01  8.00000000E-01  1.50000000E+00  8.00000000E-01
  8.00000000E-01  1.50000000E+00  8.00000000E-01  8.00000000E-01  1.50000000E+00
  8.00000000E-01  8.00000000E-01  1.50000000E+00  8.00000000E-01  8.00000000E-01
  1.50000000E+00  8.00000000E-01  8.00000000E-01  1.50000000E+00  8.00000000E-01
  8.00000000E-01  1.50000000E+00  8.00000000E-01  8.00000000E-01  1.50000000E+00
  8.00000000E-01  8.00000000E-01  1.50000000E+00  8.00000000E-01  8.00000000E-01
  1.50000000E+00  8.00000000E-01  8.00000000E-01  1.50000000E+00  8.00000000E-01
  8.00000000E-01  1.50000000E+00  8.00000000E-01  8.00000000E-01  1.50000000E+00
  8.00000000E-01  8.00000000E-01  1.50000000E+00  8.00000000E-01  8.00000000E-01
  1.50000000E+00  8.00000000E-01  8.00000000E-01  1.50000000E+00  8.00000000E-01
  8.00000000E-01  1.50000000E+00  8.00000000E-01  8.00000000E-01  1.50000000E+00
  8.00000000E-01  8.00000000E-01  1.50000000E+00  8.00000000E-01  8.00000000E-01
  1.50000000E+00  8.00000000E-01  8.00000000E-01  1.50000000E+00  8.00000000E-01
  8.00000000E-01  1.50000000E+00  8.00000000E-01  8.00000000E-01  1.50000000E+00
  8.00000000E-01  8.00000000E-01  1.50000000E+00  8.00000000E-01  8.00000000E-01
  1.50000000E+00  8.00000000E-01  8.00000000E-01  1.50000000E+00  8.00000000E-01
  8.00000000E-01  1.50000000E+00  8.00000000E-01  8.00000000E-01  1.50000000E+00
  8.00000000E-01  8.00000000E-01  1.50000000E+00  8.00000000E-01  8.00000000E-01
  1.50000000E+00  8.00000000E-01  8.00000000E-01  1.50000000E+00  8.00000000E-01
  8.00000000E-01  1.50000000E+00  8.00000000E-01  8.00000000E-01  1.50000000E+00
  8.00000000E-01  8.00000000E-01  1.50000000E+00  8.00000000E-01  8.00000000E-01
  1.50000000E+00  8.00000000E-01  8.00000000E-01  1.50000000E+00  8.00000000E-01
  8.00000000E-01  1.50000000E+00  8.00000000E-01  8.00000000E-01  1.50000000E+00
  8.00000000E-01  8.00000000E-01  1.50000000E+00  8.00000000E-01  8.00000000E-01
  1.50000000E+00  8.00000000E-01  8.00000000E-01  1.50000000E+00  8.00000000E-01
  8.00000000E-01  1.50000000E+00  8.00000000E-01  8.00000000E-01  1.50000000E+00
  8.00000000E-01  8.00000000E-01  1.50000000E+00  8.00000000E-01  8.00000000E-01
  1.50000000E+00  8.00000000E-01  8.00000000E-01  1.50000000E+00  8.00000000E-01
  8.00000000E-01  1.50000000E+00  8.00000000E-01  8.00000000E-01  1.50000000E+00
  8.00000000E-01  8.00000000E-01  1.50000000E+00  8.00000000E-01  8.00000000E-01
  1.50000000E+00  8.00000000E-01  8.00000000E-01  1.50000000E+00  8.00000000E-01
  8.00000000E-01  1.50000000E+00  8.00000000E-01  8.00000000E-01  1.50000000E+00
  8.00000000E-01  8.00000000E-01  1.50000000E+00  8.00000000E-01  8.00000000E-01
  1.50000000E+00  8.00000000E-01  8.00000000E-01  1.50000000E+00  8.00000000E-01
  8.00000000E-01  1.50000000E+00  8.00000000E-01  8.00000000E-01  1.50000000E+00
  8.00000000E-01  8.00000000E-01  1.50000000E+00  8.00000000E-01  8.00000000E-01
  1.50000000E+00  8.00000000E-01  8.00000000E-01  1.50000000E+00  8.00000000E-01
  8.00000000E-01  1.50000000E+00  8.00000000E-01  8.00000000E-01  1.50000000E+00
  8.00000000E-01  8.00000000E-01  1.50000000E+00  8.00000000E-01  8.00000000E-01
  1.50000000E+00  8.00000000E-01  8.00000000E-01  1.50000000E+00  8.00000000E-01
  8.00000000E-01  1.50000000E+00  8.00000000E-01  8.00000000E-01  1.50000000E+00
  8.00000000E-01  8.00000000E-01  1.50000000E+00  8.00000000E-01  8.00000000E-01
  1.50000000E+00  8.00000000E-01  8.00000000E-01  1.50000000E+00  8.00000000E-01
  8.00000000E-01  1.50000000E+00  8.00000000E-01  8.00000000E-01  1.50000000E+00
  8.00000000E-01  8.00000000E-01  1.50000000E+00  8.00000000E-01  8.00000000E-01
  1.50000000E+00  8.00000000E-01  8.00000000E-01  1.50000000E+00  8.00000000E-01
  8.00000000E-01  1.50000000E+00  8.00000000E-01  8.00000000E-01  1.50000000E+00
  8.00000000E-01  8.00000000E-01  1.50000000E+00  8.00000000E-01  8.00000000E-01
  1.50000000E+00  8.00000000E-01  8.00000000E-01  1.50000000E+00  8.00000000E-01
  8.00000000E-01  1.50000000E+00  8.00000000E-01  8.00000000E-01  1.50000000E+00
  8.00000000E-01  8.00000000E-01  1.50000000E+00  8.00000000E-01  8.00000000E-01
  1.50000000E+00  8.00000000E-01  8.00000000E-01  1.50000000E+00  8.00000000E-01
  8.00000000E-01  1.50000000E+00  8.00000000E-01  8.00000000E-01  1.50000000E+00
  8.00000000E-01  8.00000000E-01  1.50000000E+00  8.00000000E-01  8.00000000E-01
  1.50000000E+00  8.00000000E-01  8.00000000E-01  1.50000000E+00  8.00000000E-01
  8.00000000E-01  1.50000000E+00  8.00000000E-01  8.00000000E-01  1.50000000E+00
  8.00000000E-01  8.00000000E-01  1.50000000E+00  8.00000000E-01  8.00000000E-01
  1.50000000E+00  8.00000000E-01  8.00000000E-01  1.50000000E+00  8.00000000E-01
  8.00000000E-01  1.50000000E+00  8.00000000E-01  8.00000000E-01  1.50000000E+00
  8.00000000E-01  8.00000000E-01  1.50000000E+00  8.00000000E-01  8.00000000E-01
  1.50000000E+00  8.00000000E-01  8.00000000E-01  1.50000000E+00  8.00000000E-01
  8.00000000E-01  1.50000000E+00  8.00000000E-01  8.00000000E-01  1.50000000E+00
  8.00000000E-01  8.00000000E-01  1.50000000E+00  8.00000000E-01  8.00000000E-01
  1.50000000E+00  8.00000000E-01  8.00000000E-01  1.50000000E+00  8.00000000E-01
  8.00000000E-01  1.50000000E+00  8.00000000E-01  8.00000000E-01  1.50000000E+00
  8.00000000E-01  8.00000000E-01  1.50000000E+00  8.00000000E-01  8.00000000E-01
  1.50000000E+00  8.00000000E-01  8.00000000E-01  1.50000000E+00  8.00000000E-01
  8.00000000E-01  1.50000000E+00  8.00000000E-01  8.00000000E-01  1.50000000E+00
  8.00000000E-01  8.00000000E-01  1.50000000E+00  8.00000000E-01  8.00000000E-01
  1.50000000E+00  8.00000000E-01  8.00000000E-01  1.50000000E+00  8.00000000E-01
  8.00000000E-01  1.50000000E+00  8.00000000E-01  8.00000000E-01  1.50000000E+00
  8.00000000E-01  8.00000000E-01  1.50000000E+00  8.00000000E-01  8.00000000E-01
  1.50000000E+00  8.00000000E-01  8.00000000E-01  1.50000000E+00  8.00000000E-01
  8.00000000E-01  1.50000000E+00  8.00000000E-01  8.00000000E-01  1.50000000E+00
  8.00000000E-01  8.00000000E-01  1.50000000E+00  8.00000000E-01  8.00000000E-01
  1.50000000E+00  8.00000000E-01  8.00000000E-01  1.50000000E+00  8.00000000E-01
  8.00000000E-01  1.50000000E+00  8.00000000E-01  8.00000000E-01  1.50000000E+00
  8.00000000E-01  8.00000000E-01  1.50000000E+00  8.00000000E-01  8.00000000E-01
  1.50000000E+00  8.00000000E-01  8.00000000E-01  1.50000000E+00  8.00000000E-01
  8.00000000E-01  1.50000000E+00  8.00000000E-01  8.00000000E-01  1.50000000E+00
  8.00000000E-01  8.00000000E-01  1.50000000E+00  8.00000000E-01  8.00000000E-01
  1.50000000E+00  8.00000000E-01  8.00000000E-01  1.50000000E+00  8.00000000E-01
  8.00000000E-01  1.50000000E+00  8.00000000E-01  8.00000000E-01  1.50000000E+00
  8.00000000E-01  8.00000000E-01  1.50000000E+00  8.00000000E-01  8.00000000E-01
  1.50000000E+00  8.00000000E-01  8.00000000E-01  1.50000000E+00  8.00000000E-01
  8.00000000E-01  1.50000000E+00  8.00000000E-01  8.00000000E-01  1.50000000E+00
  8.00000000E-01  8.00000000E-01  1.50000000E+00  8.00000000E-01  8.00000000E-01
  1.50000000E+00  8.00000000E-01  8.00000000E-01  1.50000000E+00  8.00000000E-01
  8.00000000E-01  1.50000000E+00  8.00000000E-01  8.00000000E-01  1.50000000E+00
  8.00000000E-01  8.00000000E-01  1.50000000E+00  8.00000000E-01  8.00000000E-01
  1.50000000E+00  8.00000000E-01  8.00000000E-01  1.50000000E+00  8.00000000E-01
  8.00000000E-01  1.50000000E+00  8.00000000E-01  8.00000000E-01  1.50000000E+00
  8.00000000E-01  8.00000000E-01  1.50000000E+00  8.00000000E-01  8.00000000E-01
  1.50000000E+00  8.00000000E-01  8.00000000E-01  1.50000000E+00  8.00000000E-01
  8.00000000E-01  1.50000000E+00  8.00000000E-01  8.00000000E-01  1.50000000E+00
  8.00000000E-01  8.00000000E-01  1.50000000E+00  8.00000000E-01  8.00000000E-01
  1.50000000E+00  8.00000000E-01  8.00000000E-01  1.50000000E+00  8.00000000E-01
  8.00000000E-01  1.50000000E+00  8.00000000E-01  8.00000000E-01  1.50000000E+00
  8.00000000E-01  8.00000000E-01  1.50000000E+00  8.00000000E-01  8.00000000E-01
  1.50000000E+00  8.00000000E-01  8.00000000E-01  1.50000000E+00  8.00000000E-01
  8.00000000E-01  1.50000000E+00  8.00000000E-01  8.00000000E-01  1.50000000E+00
  8.00000000E-01  8.00000000E-01  1.50000000E+00  8.00000000E-01  8.00000000E-01
  1.50000000E+00  8.00000000E-01  8.00000000E-01  1.50000000E+00  8.00000000E-01
  8.00000000E-01  1.50000000E+00  8.00000000E-01  8.00000000E-01  1.50000000E+00
  8.00000000E-01  8.00000000E-01  1.50000000E+00  8.00000000E-01  8.00000000E-01
  1.50000000E+00  8.00000000E-01  8.00000000E-01  1.50000000E+00  8.00000000E-01
  8.00000000E-01  1.50000000E+00  8.00000000E-01  8.00000000E-01  1.50000000E+00
  8.00000000E-01  8.00000000E-01  1.50000000E+00  8.00000000E-01  8.00000000E-01
  1.50000000E+00  8.00000000E-01  8.00000000E-01  1.50000000E+00  8.00000000E-01
  8.00000000E-01  1.50000000E+00  8.00000000E-01  8.00000000E-01  1.50000000E+00
  8.00000000E-01  8.00000000E-01  1.50000000E+00  8.00000000E-01  8.00000000E-01
  1.50000000E+00  8.00000000E-01  8.00000000E-01  1.50000000E+00  8.00000000E-01
  8.00000000E-01  1.50000000E+00  8.00000000E-01  8.00000000E-01  1.50000000E+00
  8.00000000E-01  8.00000000E-01  1.50000000E+00  8.00000000E-01  8.00000000E-01
  1.50000000E+00  8.00000000E-01  8.00000000E-01  1.50000000E+00  8.00000000E-01
  8.00000000E-01  1.50000000E+00  8.00000000E-01  8.00000000E-01  1.50000000E+00
  8.00000000E-01  8.00000000E-01  1.50000000E+00  8.00000000E-01  8.00000000E-01
  1.50000000E+00  8.00000000E-01  8.00000000E-01  1.50000000E+00  8.00000000E-01
  8.00000000E-01  1.50000000E+00  8.00000000E-01  8.00000000E-01  1.50000000E+00
  8.00000000E-01  8.00000000E-01  1.50000000E+00  8.00000000E-01  8.00000000E-01
  1.50000000E+00  8.00000000E-01  8.00000000E-01  1.50000000E+00  8.00000000E-01
  8.00000000E-01  1.50000000E+00  8.00000000E-01  8.00000000E-01  1.50000000E+00
  8.00000000E-01  8.00000000E-01  1.50000000E+00  8.00000000E-01  8.00000000E-01
  1.50000000E+00  8.00000000E-01  8.00000000E-01  1.50000000E+00  8.00000000E-01
  8.00000000E-01  1.50000000E+00  8.00000000E-01  8.00000000E-01  1.50000000E+00
  8.00000000E-01  8.00000000E-01  1.50000000E+00  8.00000000E-01  8.00000000E-01
  1.50000000E+00  8.00000000E-01  8.00000000E-01  1.50000000E+00  8.00000000E-01
  8.00000000E-01  1.50000000E+00  8.00000000E-01  8.00000000E-01  1.50000000E+00
  8.00000000E-01  8.00000000E-01  1.50000000E+00  8.00000000E-01  8.00000000E-01
  1.50000000E+00  8.00000000E-01  8.00000000E-01  1.50000000E+00  8.00000000E-01
  8.00000000E-01  1.50000000E+00  8.00000000E-01  8.00000000E-01  1.50000000E+00
  8.00000000E-01  8.00000000E-01  1.50000000E+00  8.00000000E-01  8.00000000E-01
  1.50000000E+00  8.00000000E-01  8.00000000E-01  1.50000000E+00  8.00000000E-01
  8.00000000E-01  1.50000000E+00  8.00000000E-01  8.00000000E-01  1.50000000E+00
  8.00000000E-01  8.00000000E-01  1.50000000E+00  8.00000000E-01  8.00000000E-01
  1.50000000E+00  8.00000000E-01  8.00000000E-01  1.50000000E+00  8.00000000E-01
  8.00000000E-01  1.50000000E+00  8.00000000E-01  8.00000000E-01  1.50000000E+00
  8.00000000E-01  8.00000000E-01  1.50000000E+00  8.00000000E-01  8.00000000E-01
  1.50000000E+00  8.00000000E-01  8.00000000E-01  1.50000000E+00  8.00000000E-01
  8.00000000E-01  1.50000000E+00  8.00000000E-01  8.00000000E-01  1.50000000E+00
  8.00000000E-01  8.00000000E-01  1.50000000E+00  8.00000000E-01  8.00000000E-01
  1.50000000E+00  8.00000000E-01  8.00000000E-01  1.50000000E+00  8.00000000E-01
  8.00000000E-01  1.50000000E+00  8.00000000E-01  8.00000000E-01  1.50000000E+00
  8.00000000E-01  8.00000000E-01  1.50000000E+00  8.00000000E-01  8.00000000E-01
  1.50000000E+00  8.00000000E-01  8.00000000E-01  1.50000000E+00  8.00000000E-01
  8.00000000E-01  1.50000000E+00  8.00000000E-01  8.00000000E-01  1.50000000E+00
  8.00000000E-01  8.00000000E-01  1.50000000E+00  8.00000000E-01  8.00000000E-01
  1.50000000E+00  8.00000000E-01  8.00000000E-01  1.50000000E+00  8.00000000E-01
  8.00000000E-01  1.50000000E+00  8.00000000E-01  8.00000000E-01  1.50000000E+00
  8.00000000E-01  8.00000000E-01  1.50000000E+00  8.00000000E-01  8.00000000E-01
  1.50000000E+00  8.00000000E-01  8.00000000E-01  1.50000000E+00  8.00000000E-01
  8.00000000E-01  1.50000000E+00  8.00000000E-01  8.00000000E-01  1.50000000E+00
  8.00000000E-01  8.00000000E-01  1.50000000E+00  8.00000000E-01  8.00000000E-01
  1.50000000E+00  8.00000000E-01  8.00000000E-01  1.50000000E+00  8.00000000E-01
  8.00000000E-01  1.50000000E+00  8.00000000E-01  8.00000000E-01  1.50000000E+00
  8.00000000E-01  8.00000000E-01  1.50000000E+00  8.00000000E-01  8.00000000E-01
  1.50000000E+00  8.00000000E-01  8.00000000E-01  1.50000000E+00  8.00000000E-01
  8.00000000E-01  1.50000000E+00  8.00000000E-01  8.00000000E-01  1.50000000E+00
  8.00000000E-01  8.00000000E-01  1.50000000E+00  8.00000000E-01  8.00000000E-01
  1.50000000E+00  8.00000000E-01  8.00000000E-01  1.50000000E+00  8.00000000E-01
  8.00000000E-01  1.50000000E+00  8.00000000E-01  8.00000000E-01  1.50000000E+00
  8.00000000E-01  8.00000000E-01  1.50000000E+00  8.00000000E-01  8.00000000E-01
  1.50000000E+00  8.00000000E-01  8.00000000E-01  1.50000000E+00  8.00000000E-01
  8.00000000E-01  1.50000000E+00  8.00000000E-01  8.00000000E-01  1.50000000E+00
  8.00000000E-01  8.00000000E-01  1.50000000E+00  8.00000000E-01  8.00000000E-01
  1.50000000E+00  8.00000000E-01  8.00000000E-01  1.50000000E+00  8.00000000E-01
  8.00000000E-01  1.50000000E+00  8.00000000E-01  8.00000000E-01  1.50000000E+00
  8.00000000E-01  8.00000000E-01  1.50000000E+00  8.00000000E-01  8.00000000E-01
  1.50000000E+00  8.00000000E-01  8.00000000E-01  1.50000000E+00  8.00000000E-01
  8.00000000E-01  1.50000000E+00  8.00000000E-01  8.00000000E-01  1.50000000E+00
  8.00000000E-01  8.00000000E-01  1.50000000E+00  8.00000000E-01  8.00000000E-01
  1.50000000E+00  8.00000000E-01  8.00000000E-01  1.50000000E+00  8.00000000E-01
  8.00000000E-01  1.50000000E+00  8.00000000E-01  8.00000000E-01  1.50000000E+00
  8.00000000E-01  8.00000000E-01  1.50000000E+00  8.00000000E-01  8.00000000E-01
  1.50000000E+00  8.00000000E-01  8.00000000E-01  1.50000000E+00  8.00000000E-01
  8.00000000E-01  1.50000000E+00  8.00000000E-01  8.00000000E-01  1.50000000E+00
  8.00000000E-01  8.00000000E-01  1.50000000E+00  8.00000000E-01  8.00000000E-01
  1.50000000E+00  8.00000000E-01  8.00000000E-01  1.50000000E+00  8.00000000E-01
  8.00000000E-01  1.50000000E+00  8.00000000E-01  8.00000000E-01  1.50000000E+00
  8.00000000E-01  8.00000000E-01  1.50000000E+00  8.00000000E-01  8.00000000E-01
  1.50000000E+00  8.00000000E-01  8.00000000E-01  1.50000000E+00  8.00000000E-01
  8.00000000E-01  1.50000000E+00  8.00000000E-01  8.00000000E-01  1.50000000E+00
  8.00000000E-01  8.00000000E-01  1.50000000E+00  8.00000000E-01  8.00000000E-01
  1.50000000E+00  8.00000000E-01  8.00000000E-01  1.50000000E+00  8.00000000E-01
  8.00000000E-01  1.50000000E+00  8.00000000E-01  8.00000000E-01  1.50000000E+00
  8.00000000E-01  8.00000000E-01  1.50000000E+00  8.00000000E-01  8.00000000E-01
  1.50000000E+00  8.00000000E-01  8.00000000E-01  1.50000000E+00  8.00000000E-01
  8.00000000E-01  1.50000000E+00  8.00000000E-01  8.00000000E-01  1.50000000E+00
  8.00000000E-01  8.00000000E-01  1.50000000E+00  8.00000000E-01  8.00000000E-01
  1.50000000E+00  8.00000000E-01  8.00000000E-01  1.50000000E+00  8.00000000E-01
  8.00000000E-01  1.50000000E+00  8.00000000E-01  8.00000000E-01  1.50000000E+00
  8.00000000E-01  8.00000000E-01  1.50000000E+00  8.00000000E-01  8.00000000E-01
  1.50000000E+00  8.00000000E-01  8.00000000E-01  1.50000000E+00  8.00000000E-01
  8.00000000E-01  1.50000000E+00  8.00000000E-01  8.00000000E-01  1.50000000E+00
  8.00000000E-01  8.00000000E-01  1.50000000E+00  8.00000000E-01  8.00000000E-01
  1.50000000E+00  8.00000000E-01  8.00000000E-01  1.50000000E+00  8.00000000E-01
  8.00000000E-01  1.50000000E+00  8.00000000E-01  8.00000000E-01  1.50000000E+00
  8.00000000E-01  8.00000000E-01  1.50000000E+00  8.00000000E-01  8.00000000E-01
  1.50000000E+00  8.00000000E-01  8.00000000E-01  1.50000000E+00  8.00000000E-01
  8.00000000E-01  1.50000000E+00  8.00000000E-01  8.00000000E-01  1.50000000E+00
  8.00000000E-01  8.00000000E-01  1.50000000E+00  8.00000000E-01  8.00000000E-01
  1.50000000E+00  8.00000000E-01  8.00000000E-01  1.50000000E+00  8.00000000E-01
  8.00000000E-01  1.50000000E+00  8.00000000E-01  8.00000000E-01  1.50000000E+00
  8.00000000E-01  8.00000000E-01  1.50000000E+00  8.00000000E-01  8.00000000E-01
  1.50000000E+00  8.00000000E-01  8.00000000E-01  1.50000000E+00  8.00000000E-01
  8.00000000E-01  1.50000000E+00  8.00000000E-01  8.00000000E-01  1.50000000E+00
  8.00000000E-01  8.00000000E-01  1.50000000E+00  8.00000000E-01  8.00000000E-01
  1.50000000E+00  8.00000000E-01  8.00000000E-01  1.50000000E+00  8.00000000E-01
  8.00000000E-01  1.50000000E+00  8.00000000E-01  8.00000000E-01  1.50000000E+00
  8.00000000E-01  8.00000000E-01  1.50000000E+00  8.00000000E-01  8.00000000E-01
  1.50000000E+00  8.00000000E-01  8.00000000E-01  1.50000000E+00  8.00000000E-01
  8.00000000E-01  1.50000000E+00  8.00000000E-01  8.00000000E-01  1.50000000E+00
  8.00000000E-01  8.00000000E-01  1.50000000E+00  8.00000000E-01  8.00000000E-01
  1.50000000E+00  8.00000000E-01  8.00000000E-01  1.50000000E+00  8.00000000E-01
  8.00000000E-01  1.50000000E+00  8.00000000E-01  8.00000000E-01  1.50000000E+00
  8.00000000E-01  8.00000000E-01  1.50000000E+00  8.00000000E-01  8.00000000E-01
  1.50000000E+00  8.00000000E-01  8.00000000E-01  1.50000000E+00  8.00000000E-01
  8.00000000E-01  1.50000000E+00  8.00000000E-01  8.00000000E-01  1.50000000E+00
  8.00000000E-01  8.00000000E-01  1.50000000E+00  8.00000000E-01  8.00000000E-01
  1.50000000E+00  8.00000000E-01  8.00000000E-01  1.50000000E+00  8.00000000E-01
  8.00000000E-01  1.50000000E+00  8.00000000E-01  8.00000000E-01  1.50000000E+00
  8.00000000E-01  8.00000000E-01  1.50000000E+00  8.00000000E-01  8.00000000E-01
  1.50000000E+00  8.00000000E-01  8.00000000E-01  1.50000000E+00  8.00000000E-01
  8.00000000E-01  1.50000000E+00  8.00000000E-01  8.00000000E-01  1.50000000E+00
  8.00000000E-01  8.00000000E-01  1.50000000E+00  8.00000000E-01  8.00000000E-01
  1.50000000E+00  8.00000000E-01  8.00000000E-01  1.50000000E+00  8.00000000E-01
  8.00000000E-01  1.50000000E+00  8.00000000E-01  8.00000000E-01  1.50000000E+00
  8.00000000E-01  8.00000000E-01  1.50000000E+00  8.00000000E-01  8.00000000E-01
  1.50000000E+00  8.00000000E-01  8.00000000E-01  1.50000000E+00  8.00000000E-01
  8.00000000E-01  1.50000000E+00  8.00000000E-01  8.00000000E-01  1.50000000E+00
  8.00000000E-01  8.00000000E-01  1.50000000E+00  8.00000000E-01  8.00000000E-01
  1.50000000E+00  8.00000000E-01  8.00000000E-01  1.50000000E+00  8.00000000E-01
  8.00000000E-01  1.50000000E+00  8.00000000E-01  8.00000000E-01  1.50000000E+00
  8.00000000E-01  8.00000000E-01  1.50000000E+00  8.00000000E-01  8.00000000E-01
  1.50000000E+00  8.00000000E-01  8.00000000E-01  1.50000000E+00  8.00000000E-01
  8.00000000E-01  1.50000000E+00  8.00000000E-01  8.00000000E-01  1.50000000E+00
  8.00000000E-01  8.00000000E-01  1.50000000E+00  8.00000000E-01  8.00000000E-01
  1.50000000E+00  8.00000000E-01  8.00000000E-01  1.50000000E+00  8.00000000E-01
  8.00000000E-01  1.50000000E+00  8.00000000E-01  8.00000000E-01  1.50000000E+00
  8.00000000E-01  8.00000000E-01  1.50000000E+00  8.00000000E-01  8.00000000E-01
  1.50000000E+00  8.00000000E-01  8.00000000E-01  1.50000000E+00  8.00000000E-01
  8.00000000E-01  1.50000000E+00  8.00000000E-01  8.00000000E-01  1.50000000E+00
  8.00000000E-01  8.00000000E-01  1.50000000E+00  8.00000000E-01  8.00000000E-01
  1.50000000E+00  8.00000000E-01  8.00000000E-01  1.50000000E+00  8.00000000E-01
  8.00000000E-01  1.50000000E+00  8.00000000E-01  8.00000000E-01  1.50000000E+00
  8.00000000E-01  8.00000000E-01  1.50000000E+00  8.00000000E-01  8.00000000E-01
  1.50000000E+00  8.00000000E-01  8.00000000E-01  1.50000000E+00  8.00000000E-01
  8.00000000E-01  1.50000000E+00  8.00000000E-01  8.00000000E-01  1.50000000E+00
  8.00000000E-01  8.00000000E-01  1.50000000E+00  8.00000000E-01  8.00000000E-01
  1.50000000E+00  8.00000000E-01  8.00000000E-01  1.50000000E+00  8.00000000E-01
  8.00000000E-01  1.50000000E+00  8.00000000E-01  8.00000000E-01  1.50000000E+00
  8.00000000E-01  8.00000000E-01  1.50000000E+00  8.00000000E-01  8.00000000E-01
  1.50000000E+00  8.00000000E-01  8.00000000E-01  1.50000000E+00  8.00000000E-01
  8.00000000E-01  1.50000000E+00  8.00000000E-01  8.00000000E-01  1.50000000E+00
  8.00000000E-01  8.00000000E-01  1.50000000E+00  8.00000000E-01  8.00000000E-01
  1.50000000E+00  8.00000000E-01  8.00000000E-01  1.50000000E+00  8.00000000E-01
  8.00000000E-01  1.50000000E+00  8.00000000E-01  8.00000000E-01  1.50000000E+00
  8.00000000E-01  8.00000000E-01  1.50000000E+00  8.00000000E-01  8.00000000E-01
  1.50000000E+00  8.00000000E-01  8.00000000E-01  1.50000000E+00  8.00000000E-01
  8.00000000E-01  1.50000000E+00  8.00000000E-01  8.00000000E-01  1.50000000E+00
  8.00000000E-01  8.00000000E-01  1.50000000E+00  8.00000000E-01  8.00000000E-01
  1.50000000E+00  8.00000000E-01  8.00000000E-01  1.50000000E+00  8.00000000E-01
  8.00000000E-01  1.50000000E+00  8.00000000E-01  8.00000000E-01  1.50000000E+00
  8.00000000E-01  8.00000000E-01  1.50000000E+00  8.00000000E-01  8.00000000E-01
  1.50000000E+00  8.00000000E-01  8.00000000E-01  1.50000000E+00  8.00000000E-01
  8.00000000E-01  1.50000000E+00  8.00000000E-01  8.00000000E-01  1.50000000E+00
  8.00000000E-01  8.00000000E-01  1.50000000E+00  8.00000000E-01  8.00000000E-01
  1.50000000E+00  8.00000000E-01  8.00000000E-01  1.50000000E+00  8.00000000E-01
  8.00000000E-01  1.50000000E+00  8.00000000E-01  8.00000000E-01  1.50000000E+00
  8.00000000E-01  8.00000000E-01  1.50000000E+00  8.00000000E-01  8.00000000E-01
  1.50000000E+00  8.00000000E-01  8.00000000E-01  1.50000000E+00  8.00000000E-01
  8.00000000E-01  1.50000000E+00  8.00000000E-01  8.00000000E-01  1.50000000E+00
  8.00000000E-01  8.00000000E-01  1.50000000E+00  8.00000000E-01  8.00000000E-01
  1.50000000E+00  8.00000000E-01  8.00000000E-01  1.50000000E+00  8.00000000E-01
  8.00000000E-01  1.50000000E+00  8.00000000E-01  8.00000000E-01  1.50000000E+00
  8.00000000E-01  8.00000000E-01  1.50000000E+00  8.00000000E-01  8.00000000E-01
  1.50000000E+00  8.00000000E-01  8.00000000E-01  1.50000000E+00  8.00000000E-01
  8.00000000E-01  1.50000000E+00  8.00000000E-01  8.00000000E-01  1.50000000E+00
  8.00000000E-01  8.00000000E-01  1.50000000E+00  8.00000000E-01  8.00000000E-01
  1.50000000E+00  8.00000000E-01  8.00000000E-01  1.50000000E+00  8.00000000E-01
  8.00000000E-01  1.50000000E+00  8.00000000E-01  8.00000000E-01  1.50000000E+00
  8.00000000E-01  8.00000000E-01  1.50000000E+00  8.00000000E-01  8.00000000E-01
  1.50000000E+00  8.00000000E-01  8.00000000E-01  1.50000000E+00  8.00000000E-01
  8.00000000E-01  1.50000000E+00  8.00000000E-01  8.00000000E-01  1.50000000E+00
  8.00000000E-01  8.00000000E-01  1.50000000E+00  8.00000000E-01  8.00000000E-01
  1.50000000E+00  8.00000000E-01  8.00000000E-01  1.50000000E+00  8.00000000E-01
  8.00000000E-01  1.50000000E+00  8.00000000E-01  8.00000000E-01  1.50000000E+00
  8.00000000E-01  8.00000000E-01  1.50000000E+00  8.00000000E-01  8.00000000E-01
  1.50000000E+00  8.00000000E-01  8.00000000E-01  1.50000000E+00  8.00000000E-01
  8.00000000E-01  1.50000000E+00  8.00000000E-01  8.00000000E-01  1.50000000E+00
  8.00000000E-01  8.00000000E-01  1.50000000E+00  8.00000000E-01  8.00000000E-01
  1.50000000E+00  8.00000000E-01  8.00000000E-01  1.50000000E+00  8.00000000E-01
  8.00000000E-01  1.50000000E+00  8.00000000E-01  8.00000000E-01  1.50000000E+00
  8.00000000E-01  8.00000000E-01  1.50000000E+00  8.00000000E-01  8.00000000E-01
  1.50000000E+00  8.00000000E-01  8.00000000E-01  1.50000000E+00  8.00000000E-01
  8.00000000E-01  1.50000000E+00  8.00000000E-01  8.00000000E-01  1.50000000E+00
  8.00000000E-01  8.00000000E-01  1.50000000E+00  8.00000000E-01  8.00000000E-01
  1.50000000E+00  8.00000000E-01  8.00000000E-01  1.50000000E+00  8.00000000E-01
  8.00000000E-01  1.50000000E+00  8.00000000E-01  8.00000000E-01  1.50000000E+00
  8.00000000E-01  8.00000000E-01  1.50000000E+00  8.00000000E-01  8.00000000E-01
  1.50000000E+00  8.00000000E-01  8.00000000E-01  1.50000000E+00  8.00000000E-01
  8.00000000E-01  1.50000000E+00  8.00000000E-01  8.00000000E-01  1.50000000E+00
  8.00000000E-01  8.00000000E-01  1.50000000E+00  8.00000000E-01  8.00000000E-01
  1.50000000E+00  8.00000000E-01  8.00000000E-01  1.50000000E+00  8.00000000E-01
  8.00000000E-01  1.50000000E+00  8.00000000E-01  8.00000000E-01  1.50000000E+00
  8.00000000E-01  8.00000000E-01  1.50000000E+00  8.00000000E-01  8.00000000E-01
  1.50000000E+00  8.00000000E-01  8.00000000E-01  1.50000000E+00  8.00000000E-01
  8.00000000E-01  1.50000000E+00  8.00000000E-01  8.00000000E-01  1.50000000E+00
  8.00000000E-01  8.00000000E-01  1.50000000E+00  8.00000000E-01  8.00000000E-01
  1.50000000E+00  8.00000000E-01  8.00000000E-01  1.50000000E+00  8.00000000E-01
  8.00000000E-01  1.50000000E+00  8.00000000E-01  8.00000000E-01  1.50000000E+00
  8.00000000E-01  8.00000000E-01  1.50000000E+00  8.00000000E-01  8.00000000E-01
  1.50000000E+00  8.00000000E-01  8.00000000E-01  1.50000000E+00  8.00000000E-01
  8.00000000E-01  1.50000000E+00  8.00000000E-01  8.00000000E-01  1.50000000E+00
  8.00000000E-01  8.00000000E-01  1.50000000E+00  8.00000000E-01  8.00000000E-01
  1.50000000E+00  8.00000000E-01  8.00000000E-01  1.50000000E+00  8.00000000E-01
  8.00000000E-01  1.50000000E+00  8.00000000E-01  8.00000000E-01  1.50000000E+00
  8.00000000E-01  8.00000000E-01  1.50000000E+00  8.00000000E-01  8.00000000E-01
  1.50000000E+00  8.00000000E-01  8.00000000E-01  1.50000000E+00  8.00000000E-01
  8.00000000E-01  1.50000000E+00  8.00000000E-01  8.00000000E-01  1.50000000E+00
  8.00000000E-01  8.00000000E-01  1.50000000E+00  8.00000000E-01  8.00000000E-01
  1.50000000E+00  8.00000000E-01  8.00000000E-01  1.50000000E+00  8.00000000E-01
  8.00000000E-01  1.50000000E+00  8.00000000E-01  8.00000000E-01  1.50000000E+00
  8.00000000E-01  8.00000000E-01  1.50000000E+00  8.00000000E-01  8.00000000E-01
  1.50000000E+00  8.00000000E-01  8.00000000E-01  1.50000000E+00  8.00000000E-01
  8.00000000E-01  1.50000000E+00  8.00000000E-01  8.00000000E-01  1.50000000E+00
  8.00000000E-01  8.00000000E-01  1.50000000E+00  8.00000000E-01  8.00000000E-01
  1.50000000E+00  8.00000000E-01  8.00000000E-01  1.50000000E+00  8.00000000E-01
  8.00000000E-01  1.50000000E+00  8.00000000E-01  8.00000000E-01  1.50000000E+00
  8.00000000E-01  8.00000000E-01  1.50000000E+00  8.00000000E-01  8.00000000E-01
  1.50000000E+00  8.00000000E-01  8.00000000E-01  1.50000000E+00  8.00000000E-01
  8.00000000E-01  1.50000000E+00  8.00000000E-01  8.00000000E-01  1.50000000E+00
  8.00000000E-01  8.00000000E-01  1.50000000E+00  8.00000000E-01  8.00000000E-01
  1.50000000E+00  8.00000000E-01  8.00000000E-01  1.50000000E+00  8.00000000E-01
  8.00000000E-01  1.50000000E+00  8.00000000E-01  8.00000000E-01  1.50000000E+00
  8.00000000E-01  8.00000000E-01  1.50000000E+00  8.00000000E-01  8.00000000E-01
  1.50000000E+00  8.00000000E-01  8.00000000E-01  1.50000000E+00  8.00000000E-01
  8.00000000E-01  1.50000000E+00  8.00000000E-01  8.00000000E-01  1.50000000E+00
  8.00000000E-01  8.00000000E-01  1.50000000E+00  8.00000000E-01  8.00000000E-01
  1.50000000E+00  8.00000000E-01  8.00000000E-01  1.50000000E+00  8.00000000E-01
  8.00000000E-01  1.50000000E+00  8.00000000E-01  8.00000000E-01  1.50000000E+00
  8.00000000E-01  8.00000000E-01  1.50000000E+00  8.00000000E-01  8.00000000E-01
  1.50000000E+00  8.00000000E-01  8.00000000E-01  1.50000000E+00  8.00000000E-01
  8.00000000E-01  1.50000000E+00  8.00000000E-01  8.00000000E-01  1.50000000E+00
  8.00000000E-01  8.00000000E-01  1.50000000E+00  8.00000000E-01  8.00000000E-01
  1.50000000E+00  8.00000000E-01  8.00000000E-01  1.50000000E+00  8.00000000E-01
  8.00000000E-01  1.50000000E+00  8.00000000E-01  8.00000000E-01  1.50000000E+00
  8.00000000E-01  8.00000000E-01  1.50000000E+00  8.00000000E-01  8.00000000E-01
  1.50000000E+00  8.00000000E-01  8.00000000E-01  1.50000000E+00  8.00000000E-01
  8.00000000E-01  1.50000000E+00  8.00000000E-01  8.00000000E-01  1.50000000E+00
  8.00000000E-01  8.00000000E-01  1.50000000E+00  8.00000000E-01  8.00000000E-01
  1.50000000E+00  8.00000000E-01  8.00000000E-01  1.50000000E+00  8.00000000E-01
  8.00000000E-01  1.50000000E+00  8.00000000E-01  8.00000000E-01  1.50000000E+00
  8.00000000E-01  8.00000000E-01  1.50000000E+00  8.00000000E-01  8.00000000E-01
  1.50000000E+00  8.00000000E-01  8.00000000E-01  1.50000000E+00  8.00000000E-01
  8.00000000E-01  1.50000000E+00  8.00000000E-01  8.00000000E-01  1.50000000E+00
  8.00000000E-01  8.00000000E-01  1.50000000E+00  8.00000000E-01  8.00000000E-01
  1.50000000E+00  8.00000000E-01  8.00000000E-01  1.50000000E+00  8.00000000E-01
  8.00000000E-01  1.50000000E+00  8.00000000E-01  8.00000000E-01  1.50000000E+00
  8.00000000E-01  8.00000000E-01  1.50000000E+00  8.00000000E-01  8.00000000E-01
  1.50000000E+00  8.00000000E-01  8.00000000E-01  1.50000000E+00  8.00000000E-01
  8.00000000E-01  1.50000000E+00  8.00000000E-01  8.00000000E-01  1.50000000E+00
  8.00000000E-01  8.00000000E-01  1.50000000E+00  8.00000000E-01  8.00000000E-01
  1.50000000E+00  8.00000000E-01  8.00000000E-01  1.50000000E+00  8.00000000E-01
  8.00000000E-01  1.50000000E+00  8.00000000E-01  8.00000000E-01  1.50000000E+00
  8.00000000E-01  8.00000000E-01  1.50000000E+00  8.00000000E-01  8.00000000E-01
  1.50000000E+00  8.00000000E-01  8.00000000E-01  1.50000000E+00  8.00000000E-01
  8.00000000E-01  1.50000000E+00  8.00000000E-01  8.00000000E-01  1.50000000E+00
  8.00000000E-01  8.00000000E-01  1.50000000E+00  8.00000000E-01  8.00000000E-01
  1.50000000E+00  8.00000000E-01  8.00000000E-01  1.50000000E+00  8.00000000E-01
  8.00000000E-01  1.50000000E+00  8.00000000E-01  8.00000000E-01  1.50000000E+00
  8.00000000E-01  8.00000000E-01  1.50000000E+00  8.00000000E-01  8.00000000E-01
  1.50000000E+00  8.00000000E-01  8.00000000E-01  1.50000000E+00  8.00000000E-01
  8.00000000E-01  1.50000000E+00  8.00000000E-01  8.00000000E-01  1.50000000E+00
  8.00000000E-01  8.00000000E-01  1.50000000E+00  8.00000000E-01  8.00000000E-01
  1.50000000E+00  8.00000000E-01  8.00000000E-01  1.50000000E+00  8.00000000E-01
  8.00000000E-01  1.50000000E+00  8.00000000E-01  8.00000000E-01  1.50000000E+00
  8.00000000E-01  8.00000000E-01  1.50000000E+00  8.00000000E-01  8.00000000E-01
  1.50000000E+00  8.00000000E-01  8.00000000E-01  1.50000000E+00  8.00000000E-01
  8.00000000E-01  1.50000000E+00  8.00000000E-01  8.00000000E-01  1.50000000E+00
  8.00000000E-01  8.00000000E-01  1.50000000E+00  8.00000000E-01  8.00000000E-01
  1.50000000E+00  8.00000000E-01  8.00000000E-01  1.50000000E+00  8.00000000E-01
  8.00000000E-01  1.50000000E+00  8.00000000E-01  8.00000000E-01  1.50000000E+00
  8.00000000E-01  8.00000000E-01  1.50000000E+00  8.00000000E-01  8.00000000E-01
  1.50000000E+00  8.00000000E-01  8.00000000E-01  1.50000000E+00  8.00000000E-01
  8.00000000E-01  1.50000000E+00  8.00000000E-01  8.00000000E-01  1.50000000E+00
  8.00000000E-01  8.00000000E-01  1.50000000E+00  8.00000000E-01  8.00000000E-01
  1.50000000E+00  8.00000000E-01  8.00000000E-01  1.50000000E+00  8.00000000E-01
  8.00000000E-01  1.50000000E+00  8.00000000E-01  8.00000000E-01  1.50000000E+00
  8.00000000E-01  8.00000000E-01  1.50000000E+00  8.00000000E-01  8.00000000E-01
  1.50000000E+00  8.00000000E-01  8.00000000E-01  1.50000000E+00  8.00000000E-01
  8.00000000E-01  1.50000000E+00  8.00000000E-01  8.00000000E-01  1.50000000E+00
  8.00000000E-01  8.00000000E-01  1.50000000E+00  8.00000000E-01  8.00000000E-01
  1.50000000E+00  8.00000000E-01  8.00000000E-01  1.50000000E+00  8.00000000E-01
  8.00000000E-01  1.50000000E+00  8.00000000E-01  8.00000000E-01  1.50000000E+00
  8.00000000E-01  8.00000000E-01  1.50000000E+00  8.00000000E-01  8.00000000E-01
  1.50000000E+00  8.00000000E-01  8.00000000E-01  1.50000000E+00  8.00000000E-01
  8.00000000E-01  1.50000000E+00  8.00000000E-01  8.00000000E-01  1.50000000E+00
  8.00000000E-01  8.00000000E-01  1.50000000E+00  8.00000000E-01  8.00000000E-01
  1.50000000E+00  8.00000000E-01  8.00000000E-01  1.50000000E+00  8.00000000E-01
  8.00000000E-01  1.50000000E+00  8.00000000E-01  8.00000000E-01  1.50000000E+00
  8.00000000E-01  8.00000000E-01  1.50000000E+00  8.00000000E-01  8.00000000E-01
  1.50000000E+00  8.00000000E-01  8.00000000E-01  1.50000000E+00  8.00000000E-01
  8.00000000E-01  1.50000000E+00  8.00000000E-01  8.00000000E-01  1.50000000E+00
  8.00000000E-01  8.00000000E-01  1.50000000E+00  8.00000000E-01  8.00000000E-01
  1.50000000E+00  8.00000000E-01  8.00000000E-01  1.50000000E+00  8.00000000E-01
  8.00000000E-01  1.50000000E+00  8.00000000E-01  8.00000000E-01  1.50000000E+00
  8.00000000E-01  8.00000000E-01  1.50000000E+00  8.00000000E-01  8.00000000E-01
  1.50000000E+00  8.00000000E-01  8.00000000E-01  1.50000000E+00  8.00000000E-01
  8.00000000E-01  1.50000000E+00  8.00000000E-01  8.00000000E-01  1.50000000E+00
  8.00000000E-01  8.00000000E-01  1.50000000E+00  8.00000000E-01  8.00000000E-01
  1.50000000E+00  8.00000000E-01  8.00000000E-01  1.50000000E+00  8.00000000E-01
  8.00000000E-01  1.50000000E+00  8.00000000E-01  8.00000000E-01  1.50000000E+00
  8.00000000E-01  8.00000000E-01  1.50000000E+00  8.00000000E-01  8.00000000E-01
  1.50000000E+00  8.00000000E-01  8.00000000E-01  1.50000000E+00  8.00000000E-01
  8.00000000E-01  1.50000000E+00  8.00000000E-01  8.00000000E-01  1.50000000E+00
  8.00000000E-01  8.00000000E-01  1.50000000E+00  8.00000000E-01  8.00000000E-01
  1.50000000E+00  8.00000000E-01  8.00000000E-01  1.50000000E+00  8.00000000E-01
  8.00000000E-01  1.50000000E+00  8.00000000E-01  8.00000000E-01  1.50000000E+00
  8.00000000E-01  8.00000000E-01  1.50000000E+00  8.00000000E-01  8.00000000E-01
  1.50000000E+00  8.00000000E-01  8.00000000E-01  1.50000000E+00  8.00000000E-01
  8.00000000E-01  1.50000000E+00  8.00000000E-01  8.00000000E-01  1.50000000E+00
  8.00000000E-01  8.00000000E-01  1.50000000E+00  8.00000000E-01  8.00000000E-01
  1.50000000E+00  8.00000000E-01  8.00000000E-01  1.50000000E+00  8.00000000E-01
  8.00000000E-01  1.50000000E+00  8.00000000E-01  8.00000000E-01  1.50000000E+00
  8.00000000E-01  8.00000000E-01  1.50000000E+00  8.00000000E-01  8.00000000E-01
  1.50000000E+00  8.00000000E-01  8.00000000E-01  1.50000000E+00  8.00000000E-01
  8.00000000E-01  1.50000000E+00  8.00000000E-01  8.00000000E-01  1.50000000E+00
  8.00000000E-01  8.00000000E-01  1.50000000E+00  8.00000000E-01  8.00000000E-01
  1.50000000E+00  8.00000000E-01  8.00000000E-01  1.50000000E+00  8.00000000E-01
  8.00000000E-01  1.50000000E+00  8.00000000E-01  8.00000000E-01  1.50000000E+00
  8.00000000E-01  8.00000000E-01  1.50000000E+00  8.00000000E-01  8.00000000E-01
  1.50000000E+00  8.00000000E-01  8.00000000E-01  1.50000000E+00  8.00000000E-01
  8.00000000E-01  1.50000000E+00  8.00000000E-01  8.00000000E-01  1.50000000E+00
  8.00000000E-01  8.00000000E-01  1.50000000E+00  8.00000000E-01  8.00000000E-01
  1.50000000E+00  8.00000000E-01  8.00000000E-01  1.50000000E+00  8.00000000E-01
  8.00000000E-01  1.50000000E+00  8.00000000E-01  8.00000000E-01  1.50000000E+00
  8.00000000E-01  8.00000000E-01  1.50000000E+00  8.00000000E-01  8.00000000E-01
  1.50000000E+00  8.00000000E-01  8.00000000E-01  1.50000000E+00  8.00000000E-01
  8.00000000E-01  1.50000000E+00  8.00000000E-01  8.00000000E-01  1.50000000E+00
  8.00000000E-01  8.00000000E-01  1.50000000E+00  8.00000000E-01  8.00000000E-01
  1.50000000E+00  8.00000000E-01  8.00000000E-01  1.50000000E+00  8.00000000E-01
  8.00000000E-01  1.50000000E+00  8.00000000E-01  8.00000000E-01  1.50000000E+00
  8.00000000E-01  8.00000000E-01  1.50000000E+00  8.00000000E-01  8.00000000E-01
  1.50000000E+00  8.00000000E-01  8.00000000E-01  1.50000000E+00  8.00000000E-01
  8.00000000E-01  1.50000000E+00  8.00000000E-01  8.00000000E-01  1.50000000E+00
  8.00000000E-01  8.00000000E-01  1.50000000E+00  8.00000000E-01  8.00000000E-01
  1.50000000E+00  8.00000000E-01  8.00000000E-01  1.50000000E+00  8.00000000E-01
  8.00000000E-01  1.50000000E+00  8.00000000E-01  8.00000000E-01  1.50000000E+00
  8.00000000E-01  8.00000000E-01  1.50000000E+00  8.00000000E-01  8.00000000E-01
  1.50000000E+00  8.00000000E-01  8.00000000E-01  1.50000000E+00  8.00000000E-01
  8.00000000E-01  1.50000000E+00  8.00000000E-01  8.00000000E-01  1.50000000E+00
  8.00000000E-01  8.00000000E-01  1.50000000E+00  8.00000000E-01  8.00000000E-01
  1.50000000E+00  8.00000000E-01  8.00000000E-01  1.50000000E+00  8.00000000E-01
  8.00000000E-01  1.50000000E+00  8.00000000E-01  8.00000000E-01  1.50000000E+00
  8.00000000E-01  8.00000000E-01  1.50000000E+00  8.00000000E-01  8.00000000E-01
  1.50000000E+00  8.00000000E-01  8.00000000E-01  1.50000000E+00  8.00000000E-01
  8.00000000E-01  1.50000000E+00  8.00000000E-01  8.00000000E-01  1.50000000E+00
  8.00000000E-01  8.00000000E-01  1.50000000E+00  8.00000000E-01  8.00000000E-01
  1.50000000E+00  8.00000000E-01  8.00000000E-01  1.50000000E+00  8.00000000E-01
  8.00000000E-01  1.50000000E+00  8.00000000E-01  8.00000000E-01  1.50000000E+00
  8.00000000E-01  8.00000000E-01  1.50000000E+00  8.00000000E-01  8.00000000E-01
  1.50000000E+00  8.00000000E-01  8.00000000E-01  1.50000000E+00  8.00000000E-01
  8.00000000E-01  1.50000000E+00  8.00000000E-01  8.00000000E-01  1.50000000E+00
  8.00000000E-01  8.00000000E-01  1.50000000E+00  8.00000000E-01  8.00000000E-01
  1.50000000E+00  8.00000000E-01  8.00000000E-01  1.50000000E+00  8.00000000E-01
  8.00000000E-01  1.50000000E+00  8.00000000E-01  8.00000000E-01  1.50000000E+00
  8.00000000E-01  8.00000000E-01  1.50000000E+00  8.00000000E-01  8.00000000E-01
  1.50000000E+00  8.00000000E-01  8.00000000E-01  1.50000000E+00  8.00000000E-01
  8.00000000E-01  1.50000000E+00  8.00000000E-01  8.00000000E-01  1.50000000E+00
  8.00000000E-01  8.00000000E-01  1.50000000E+00  8.00000000E-01  8.00000000E-01
  1.50000000E+00  8.00000000E-01  8.00000000E-01  1.50000000E+00  8.00000000E-01
  8.00000000E-01  1.50000000E+00  8.00000000E-01  8.00000000E-01  1.50000000E+00
  8.00000000E-01  8.00000000E-01  1.50000000E+00  8.00000000E-01  8.00000000E-01
  1.50000000E+00  8.00000000E-01  8.00000000E-01  1.50000000E+00  8.00000000E-01
  8.00000000E-01  1.50000000E+00  8.00000000E-01  8.00000000E-01  1.50000000E+00
  8.00000000E-01  8.00000000E-01  1.50000000E+00  8.00000000E-01  8.00000000E-01
  1.50000000E+00  8.00000000E-01  8.00000000E-01  1.50000000E+00  8.00000000E-01
  8.00000000E-01  1.50000000E+00  8.00000000E-01  8.00000000E-01  1.50000000E+00
  8.00000000E-01  8.00000000E-01  1.50000000E+00  8.00000000E-01  8.00000000E-01
  1.50000000E+00  8.00000000E-01  8.00000000E-01  1.50000000E+00  8.00000000E-01
  8.00000000E-01  1.50000000E+00  8.00000000E-01  8.00000000E-01  1.50000000E+00
  8.00000000E-01  8.00000000E-01  1.50000000E+00  8.00000000E-01  8.00000000E-01
  1.50000000E+00  8.00000000E-01  8.00000000E-01  1.50000000E+00  8.00000000E-01
  8.00000000E-01  1.50000000E+00  8.00000000E-01  8.00000000E-01  1.50000000E+00
  8.00000000E-01  8.00000000E-01  1.50000000E+00  8.00000000E-01  8.00000000E-01
  1.50000000E+00  8.00000000E-01  8.00000000E-01  1.50000000E+00  8.00000000E-01
  8.00000000E-01  1.50000000E+00  8.00000000E-01  8.00000000E-01  1.50000000E+00
  8.00000000E-01  8.00000000E-01  1.50000000E+00  8.00000000E-01  8.00000000E-01
  1.50000000E+00  8.00000000E-01  8.00000000E-01  1.50000000E+00  8.00000000E-01
  8.00000000E-01  1.50000000E+00  8.00000000E-01  8.00000000E-01  1.50000000E+00
  8.00000000E-01  8.00000000E-01  1.50000000E+00  8.00000000E-01  8.00000000E-01
  1.50000000E+00  8.00000000E-01  8.00000000E-01  1.50000000E+00  8.00000000E-01
  8.00000000E-01  1.50000000E+00  8.00000000E-01  8.00000000E-01  1.50000000E+00
  8.00000000E-01  8.00000000E-01  1.50000000E+00  8.00000000E-01  8.00000000E-01
  1.50000000E+00  8.00000000E-01  8.00000000E-01  1.50000000E+00  8.00000000E-01
  8.00000000E-01  1.50000000E+00  8.00000000E-01  8.00000000E-01  1.50000000E+00
  8.00000000E-01  8.00000000E-01  1.50000000E+00  8.00000000E-01  8.00000000E-01
  1.50000000E+00  8.00000000E-01  8.00000000E-01  1.50000000E+00  8.00000000E-01
  8.00000000E-01  1.50000000E+00  8.00000000E-01  8.00000000E-01  1.50000000E+00
  8.00000000E-01  8.00000000E-01  1.50000000E+00  8.00000000E-01  8.00000000E-01
  1.50000000E+00  8.00000000E-01  8.00000000E-01  1.50000000E+00  8.00000000E-01
  8.00000000E-01  1.50000000E+00  8.00000000E-01  8.00000000E-01  1.50000000E+00
  8.00000000E-01  8.00000000E-01  1.50000000E+00  8.00000000E-01  8.00000000E-01
  1.50000000E+00  8.00000000E-01  8.00000000E-01  1.50000000E+00  8.00000000E-01
  8.00000000E-01  1.50000000E+00  8.00000000E-01  8.00000000E-01  1.50000000E+00
  8.00000000E-01  8.00000000E-01  1.50000000E+00  8.00000000E-01  8.00000000E-01
  1.50000000E+00  8.00000000E-01  8.00000000E-01  1.50000000E+00  8.00000000E-01
  8.00000000E-01  1.50000000E+00  8.00000000E-01  8.00000000E-01  1.50000000E+00
  8.00000000E-01  8.00000000E-01  1.50000000E+00  8.00000000E-01  8.00000000E-01
  1.50000000E+00  8.00000000E-01  8.00000000E-01  1.50000000E+00  8.00000000E-01
  8.00000000E-01  1.50000000E+00  8.00000000E-01  8.00000000E-01  1.50000000E+00
  8.00000000E-01  8.00000000E-01  1.50000000E+00  8.00000000E-01  8.00000000E-01
  1.50000000E+00  8.00000000E-01  8.00000000E-01  1.50000000E+00  8.00000000E-01
  8.00000000E-01  1.50000000E+00  8.00000000E-01  8.00000000E-01  1.50000000E+00
  8.00000000E-01  8.00000000E-01  1.50000000E+00  8.00000000E-01  8.00000000E-01
  1.50000000E+00  8.00000000E-01  8.00000000E-01  1.50000000E+00  8.00000000E-01
  8.00000000E-01  1.50000000E+00  8.00000000E-01  8.00000000E-01  1.50000000E+00
  8.00000000E-01  8.00000000E-01  1.50000000E+00  8.00000000E-01  8.00000000E-01
  1.50000000E+00  8.00000000E-01  8.00000000E-01  1.50000000E+00  8.00000000E-01
  8.00000000E-01  1.50000000E+00  8.00000000E-01  8.00000000E-01  1.50000000E+00
  8.00000000E-01  8.00000000E-01  1.50000000E+00  8.00000000E-01  8.00000000E-01
  1.50000000E+00  8.00000000E-01  8.00000000E-01  1.50000000E+00  8.00000000E-01
  8.00000000E-01  1.50000000E+00  8.00000000E-01  8.00000000E-01  1.50000000E+00
  8.00000000E-01  8.00000000E-01  1.50000000E+00  8.00000000E-01  8.00000000E-01
  1.50000000E+00  8.00000000E-01  8.00000000E-01  1.50000000E+00  8.00000000E-01
  8.00000000E-01  1.50000000E+00  8.00000000E-01  8.00000000E-01  1.50000000E+00
  8.00000000E-01  8.00000000E-01  1.50000000E+00  8.00000000E-01  8.00000000E-01
  1.50000000E+00  8.00000000E-01  8.00000000E-01  1.50000000E+00  8.00000000E-01
  8.00000000E-01  1.50000000E+00  8.00000000E-01  8.00000000E-01  1.50000000E+00
  8.00000000E-01  8.00000000E-01  1.50000000E+00  8.00000000E-01  8.00000000E-01
  1.50000000E+00  8.00000000E-01  8.00000000E-01  1.50000000E+00  8.00000000E-01
  8.00000000E-01  1.50000000E+00  8.00000000E-01  8.00000000E-01  1.50000000E+00
  8.00000000E-01  8.00000000E-01  1.50000000E+00  8.00000000E-01  8.00000000E-01
  1.50000000E+00  8.00000000E-01  8.00000000E-01  1.50000000E+00  8.00000000E-01
  8.00000000E-01  1.50000000E+00  8.00000000E-01  8.00000000E-01  1.50000000E+00
  8.00000000E-01  8.00000000E-01  1.50000000E+00  8.00000000E-01  8.00000000E-01
  1.50000000E+00  8.00000000E-01  8.00000000E-01  1.50000000E+00  8.00000000E-01
  8.00000000E-01  1.50000000E+00  8.00000000E-01  8.00000000E-01  1.50000000E+00
  8.00000000E-01  8.00000000E-01  1.50000000E+00  8.00000000E-01  8.00000000E-01
  1.50000000E+00  8.00000000E-01  8.00000000E-01  1.50000000E+00  8.00000000E-01
  8.00000000E-01  1.50000000E+00  8.00000000E-01  8.00000000E-01  1.50000000E+00
  8.00000000E-01  8.00000000E-01  1.50000000E+00  8.00000000E-01  8.00000000E-01
  1.50000000E+00  8.00000000E-01  8.00000000E-01  1.50000000E+00  8.00000000E-01
  8.00000000E-01  1.50000000E+00  8.00000000E-01  8.00000000E-01  1.50000000E+00
  8.00000000E-01  8.00000000E-01  1.50000000E+00  8.00000000E-01  8.00000000E-01
  1.50000000E+00  8.00000000E-01  8.00000000E-01  1.50000000E+00  8.00000000E-01
  8.00000000E-01  1.50000000E+00  8.00000000E-01  8.00000000E-01  1.50000000E+00
  8.00000000E-01  8.00000000E-01  1.50000000E+00  8.00000000E-01  8.00000000E-01
  1.50000000E+00  8.00000000E-01  8.00000000E-01  1.50000000E+00  8.00000000E-01
  8.00000000E-01  1.50000000E+00  8.00000000E-01  8.00000000E-01  1.50000000E+00
  8.00000000E-01  8.00000000E-01  1.50000000E+00  8.00000000E-01  8.00000000E-01
  1.50000000E+00  8.00000000E-01  8.00000000E-01  1.50000000E+00  8.00000000E-01
  8.00000000E-01  1.50000000E+00  8.00000000E-01  8.00000000E-01  1.50000000E+00
  8.00000000E-01  8.00000000E-01  1.50000000E+00  8.00000000E-01  8.00000000E-01
  1.50000000E+00  8.00000000E-01  8.00000000E-01  1.50000000E+00  8.00000000E-01
  8.00000000E-01  1.50000000E+00  8.00000000E-01  8.00000000E-01  1.50000000E+00
  8.00000000E-01  8.00000000E-01  1.50000000E+00  8.00000000E-01  8.00000000E-01
  1.50000000E+00  8.00000000E-01  8.00000000E-01  1.50000000E+00  8.00000000E-01
  8.00000000E-01  1.50000000E+00  8.00000000E-01  8.00000000E-01  1.50000000E+00
  8.00000000E-01  8.00000000E-01  1.50000000E+00  8.00000000E-01  8.00000000E-01
  1.50000000E+00  8.00000000E-01  8.00000000E-01  1.50000000E+00  8.00000000E-01
  8.00000000E-01  1.50000000E+00  8.00000000E-01  8.00000000E-01  1.50000000E+00
  8.00000000E-01  8.00000000E-01  1.50000000E+00  8.00000000E-01  8.00000000E-01
  1.50000000E+00  8.00000000E-01  8.00000000E-01  1.50000000E+00  8.00000000E-01
  8.00000000E-01  1.50000000E+00  8.00000000E-01  8.00000000E-01  1.50000000E+00
  8.00000000E-01  8.00000000E-01  1.50000000E+00  8.00000000E-01  8.00000000E-01
  1.50000000E+00  8.00000000E-01  8.00000000E-01  1.50000000E+00  8.00000000E-01
  8.00000000E-01  1.50000000E+00  8.00000000E-01  8.00000000E-01  1.50000000E+00
  8.00000000E-01  8.00000000E-01  1.50000000E+00  8.00000000E-01  8.00000000E-01
  1.50000000E+00  8.00000000E-01  8.00000000E-01  1.50000000E+00  8.00000000E-01
  8.00000000E-01  1.50000000E+00  8.00000000E-01  8.00000000E-01  1.50000000E+00
  8.00000000E-01  8.00000000E-01  1.50000000E+00  8.00000000E-01  8.00000000E-01
  1.50000000E+00  8.00000000E-01  8.00000000E-01  1.50000000E+00  8.00000000E-01
  8.00000000E-01  1.50000000E+00  8.00000000E-01  8.00000000E-01  1.50000000E+00
  8.00000000E-01  8.00000000E-01  1.50000000E+00  8.00000000E-01  8.00000000E-01
  1.50000000E+00  8.00000000E-01  8.00000000E-01  1.50000000E+00  8.00000000E-01
  8.00000000E-01  1.50000000E+00  8.00000000E-01  8.00000000E-01  1.50000000E+00
  8.00000000E-01  8.00000000E-01  1.50000000E+00  8.00000000E-01  8.00000000E-01
  1.50000000E+00  8.00000000E-01  8.00000000E-01  1.50000000E+00  8.00000000E-01
  8.00000000E-01  1.50000000E+00  8.00000000E-01  8.00000000E-01  1.50000000E+00
  8.00000000E-01  8.00000000E-01  1.50000000E+00  8.00000000E-01  8.00000000E-01
  1.50000000E+00  8.00000000E-01  8.00000000E-01  1.50000000E+00  8.00000000E-01
  8.00000000E-01  1.50000000E+00  8.00000000E-01  8.00000000E-01  1.50000000E+00
  8.00000000E-01  8.00000000E-01  1.50000000E+00  8.00000000E-01  8.00000000E-01
  1.50000000E+00  8.00000000E-01  8.00000000E-01  1.50000000E+00  8.00000000E-01
  8.00000000E-01  1.50000000E+00  8.00000000E-01  8.00000000E-01  1.50000000E+00
  8.00000000E-01  8.00000000E-01  1.50000000E+00  8.00000000E-01  8.00000000E-01
  1.50000000E+00  8.00000000E-01  8.00000000E-01  1.50000000E+00  8.00000000E-01
  8.00000000E-01  1.50000000E+00  8.00000000E-01  8.00000000E-01  1.50000000E+00
  8.00000000E-01  8.00000000E-01  1.50000000E+00  8.00000000E-01  8.00000000E-01
  1.50000000E+00  8.00000000E-01  8.00000000E-01  1.50000000E+00  8.00000000E-01
  8.00000000E-01  1.50000000E+00  8.00000000E-01  8.00000000E-01  1.50000000E+00
  8.00000000E-01  8.00000000E-01  1.50000000E+00  8.00000000E-01  8.00000000E-01
  1.50000000E+00  8.00000000E-01  8.00000000E-01  1.50000000E+00  8.00000000E-01
  8.00000000E-01  1.50000000E+00  8.00000000E-01  8.00000000E-01  1.50000000E+00
  8.00000000E-01  8.00000000E-01  1.50000000E+00  8.00000000E-01  8.00000000E-01
  1.50000000E+00  8.00000000E-01  8.00000000E-01  1.50000000E+00  8.00000000E-01
  8.00000000E-01  1.50000000E+00  8.00000000E-01  8.00000000E-01  1.50000000E+00
  8.00000000E-01  8.00000000E-01  1.50000000E+00  8.00000000E-01  8.00000000E-01
  1.50000000E+00  8.00000000E-01  8.00000000E-01  1.50000000E+00  8.00000000E-01
  8.00000000E-01  1.50000000E+00  8.00000000E-01  8.00000000E-01  1.50000000E+00
  8.00000000E-01  8.00000000E-01  1.50000000E+00  8.00000000E-01  8.00000000E-01
  1.50000000E+00  8.00000000E-01  8.00000000E-01  1.50000000E+00  8.00000000E-01
  8.00000000E-01  1.50000000E+00  8.00000000E-01  8.00000000E-01  1.50000000E+00
  8.00000000E-01  8.00000000E-01  1.50000000E+00  8.00000000E-01  8.00000000E-01
  1.50000000E+00  8.00000000E-01  8.00000000E-01  1.50000000E+00  8.00000000E-01
  8.00000000E-01  1.50000000E+00  8.00000000E-01  8.00000000E-01  1.50000000E+00
  8.00000000E-01  8.00000000E-01  1.50000000E+00  8.00000000E-01  8.00000000E-01
  1.50000000E+00  8.00000000E-01  8.00000000E-01  1.50000000E+00  8.00000000E-01
  8.00000000E-01  1.50000000E+00  8.00000000E-01  8.00000000E-01  1.50000000E+00
  8.00000000E-01  8.00000000E-01  1.50000000E+00  8.00000000E-01  8.00000000E-01
  1.50000000E+00  8.00000000E-01  8.00000000E-01  1.50000000E+00  8.00000000E-01
  8.00000000E-01  1.50000000E+00  8.00000000E-01  8.00000000E-01  1.50000000E+00
  8.00000000E-01  8.00000000E-01  1.50000000E+00  8.00000000E-01  8.00000000E-01
  1.50000000E+00  8.00000000E-01  8.00000000E-01  1.50000000E+00  8.00000000E-01
  8.00000000E-01  1.50000000E+00  8.00000000E-01  8.00000000E-01  1.50000000E+00
  8.00000000E-01  8.00000000E-01  1.50000000E+00  8.00000000E-01  8.00000000E-01
  1.50000000E+00  8.00000000E-01  8.00000000E-01  1.50000000E+00  8.00000000E-01
  8.00000000E-01  1.50000000E+00  8.00000000E-01  8.00000000E-01  1.50000000E+00
  8.00000000E-01  8.00000000E-01  1.50000000E+00  8.00000000E-01  8.00000000E-01
  1.50000000E+00  8.00000000E-01  8.00000000E-01  1.50000000E+00  8.00000000E-01
  8.00000000E-01  1.50000000E+00  8.00000000E-01  8.00000000E-01  1.50000000E+00
  8.00000000E-01  8.00000000E-01  1.50000000E+00  8.00000000E-01  8.00000000E-01
  1.50000000E+00  8.00000000E-01  8.00000000E-01  1.50000000E+00  8.00000000E-01
  8.00000000E-01  1.50000000E+00  8.00000000E-01  8.00000000E-01  1.50000000E+00
  8.00000000E-01  8.00000000E-01  1.50000000E+00  8.00000000E-01  8.00000000E-01
  1.50000000E+00  8.00000000E-01  8.00000000E-01  1.50000000E+00  8.00000000E-01
  8.00000000E-01  1.50000000E+00  8.00000000E-01  8.00000000E-01  1.50000000E+00
  8.00000000E-01  8.00000000E-01  1.50000000E+00  8.00000000E-01  8.00000000E-01
  1.50000000E+00  8.00000000E-01  8.00000000E-01  1.50000000E+00  8.00000000E-01
  8.00000000E-01  1.50000000E+00  8.00000000E-01  8.00000000E-01  1.50000000E+00
  8.00000000E-01  8.00000000E-01  1.50000000E+00  8.00000000E-01  8.00000000E-01
  1.50000000E+00  8.00000000E-01  8.00000000E-01  1.50000000E+00  8.00000000E-01
  8.00000000E-01  1.50000000E+00  8.00000000E-01  8.00000000E-01  1.50000000E+00
  8.00000000E-01  8.00000000E-01  1.50000000E+00  8.00000000E-01  8.00000000E-01
  1.50000000E+00  8.00000000E-01  8.00000000E-01  1.50000000E+00  8.00000000E-01
  8.00000000E-01  1.50000000E+00  8.00000000E-01  8.00000000E-01  1.50000000E+00
  8.00000000E-01  8.00000000E-01  1.50000000E+00  8.00000000E-01  8.00000000E-01
  1.50000000E+00  8.00000000E-01  8.00000000E-01  1.50000000E+00  8.00000000E-01
  8.00000000E-01  1.50000000E+00  8.00000000E-01  8.00000000E-01  1.50000000E+00
  8.00000000E-01  8.00000000E-01  1.50000000E+00  8.00000000E-01  8.00000000E-01
  1.50000000E+00  8.00000000E-01  8.00000000E-01  1.50000000E+00  8.00000000E-01
  8.00000000E-01  1.50000000E+00  8.00000000E-01  8.00000000E-01  1.50000000E+00
  8.00000000E-01  8.00000000E-01  1.50000000E+00  8.00000000E-01  8.00000000E-01
  1.50000000E+00  8.00000000E-01  8.00000000E-01  1.50000000E+00  8.00000000E-01
  8.00000000E-01  1.50000000E+00  8.00000000E-01  8.00000000E-01  1.50000000E+00
  8.00000000E-01  8.00000000E-01  1.50000000E+00  8.00000000E-01  8.00000000E-01
  1.50000000E+00  8.00000000E-01  8.00000000E-01  1.50000000E+00  8.00000000E-01
  8.00000000E-01  1.50000000E+00  8.00000000E-01  8.00000000E-01  1.50000000E+00
  8.00000000E-01  8.00000000E-01  1.50000000E+00  8.00000000E-01  8.00000000E-01
  1.50000000E+00  8.00000000E-01  8.00000000E-01  1.50000000E+00  8.00000000E-01
  8.00000000E-01  1.50000000E+00  8.00000000E-01  8.00000000E-01  1.50000000E+00
  8.00000000E-01  8.00000000E-01  1.50000000E+00  8.00000000E-01  8.00000000E-01
  1.50000000E+00  8.00000000E-01  8.00000000E-01  1.50000000E+00  8.00000000E-01
  8.00000000E-01  1.50000000E+00  8.00000000E-01  8.00000000E-01  1.50000000E+00
  8.00000000E-01  8.00000000E-01  1.50000000E+00  8.00000000E-01  8.00000000E-01
  1.50000000E+00  8.00000000E-01  8.00000000E-01  1.50000000E+00  8.00000000E-01
  8.00000000E-01  1.50000000E+00  8.00000000E-01  8.00000000E-01  1.50000000E+00
  8.00000000E-01  8.00000000E-01  1.50000000E+00  8.00000000E-01  8.00000000E-01
  1.50000000E+00  8.00000000E-01  8.00000000E-01  1.50000000E+00  8.00000000E-01
  8.00000000E-01  1.50000000E+00  8.00000000E-01  8.00000000E-01  1.50000000E+00
  8.00000000E-01  8.00000000E-01  1.50000000E+00  8.00000000E-01  8.00000000E-01
  1.50000000E+00  8.00000000E-01  8.00000000E-01  1.50000000E+00  8.00000000E-01
  8.00000000E-01  1.50000000E+00  8.00000000E-01  8.00000000E-01  1.50000000E+00
  8.00000000E-01  8.00000000E-01  1.50000000E+00  8.00000000E-01  8.00000000E-01
  1.50000000E+00  8.00000000E-01  8.00000000E-01  1.50000000E+00  8.00000000E-01
  8.00000000E-01  1.50000000E+00  8.00000000E-01  8.00000000E-01  1.50000000E+00
  8.00000000E-01  8.00000000E-01  1.50000000E+00  8.00000000E-01  8.00000000E-01
  1.50000000E+00  8.00000000E-01  8.00000000E-01  1.50000000E+00  8.00000000E-01
  8.00000000E-01  1.50000000E+00  8.00000000E-01  8.00000000E-01  1.50000000E+00
  8.00000000E-01  8.00000000E-01  1.50000000E+00  8.00000000E-01  8.00000000E-01
  1.50000000E+00  8.00000000E-01  8.00000000E-01  1.50000000E+00  8.00000000E-01
  8.00000000E-01  1.50000000E+00  8.00000000E-01  8.00000000E-01  1.50000000E+00
  8.00000000E-01  8.00000000E-01  1.50000000E+00  8.00000000E-01  8.00000000E-01
  1.50000000E+00  8.00000000E-01  8.00000000E-01  1.50000000E+00  8.00000000E-01
  8.00000000E-01  1.50000000E+00  8.00000000E-01  8.00000000E-01  1.50000000E+00
  8.00000000E-01  8.00000000E-01  1.50000000E+00  8.00000000E-01  8.00000000E-01
  1.50000000E+00  8.00000000E-01  8.00000000E-01  1.50000000E+00  8.00000000E-01
  8.00000000E-01  1.50000000E+00  8.00000000E-01  8.00000000E-01  1.50000000E+00
  8.00000000E-01  8.00000000E-01  1.50000000E+00  8.00000000E-01  8.00000000E-01
  1.50000000E+00  8.00000000E-01  8.00000000E-01  1.50000000E+00  8.00000000E-01
  8.00000000E-01  1.50000000E+00  8.00000000E-01  8.00000000E-01  1.50000000E+00
  8.00000000E-01  8.00000000E-01  1.50000000E+00  8.00000000E-01  8.00000000E-01
  1.50000000E+00  8.00000000E-01  8.00000000E-01  1.50000000E+00  8.00000000E-01
  8.00000000E-01  1.50000000E+00  8.00000000E-01  8.00000000E-01  1.50000000E+00
  8.00000000E-01  8.00000000E-01  1.50000000E+00  8.00000000E-01  8.00000000E-01
  1.50000000E+00  8.00000000E-01  8.00000000E-01  1.50000000E+00  8.00000000E-01
  8.00000000E-01  1.50000000E+00  8.00000000E-01  8.00000000E-01  1.50000000E+00
  8.00000000E-01  8.00000000E-01  1.50000000E+00  8.00000000E-01  8.00000000E-01
  1.50000000E+00  8.00000000E-01  8.00000000E-01  1.50000000E+00  8.00000000E-01
  8.00000000E-01  1.50000000E+00  8.00000000E-01  8.00000000E-01  1.50000000E+00
  8.00000000E-01  8.00000000E-01  1.50000000E+00  8.00000000E-01  8.00000000E-01
  1.50000000E+00  8.00000000E-01  8.00000000E-01  1.50000000E+00  8.00000000E-01
  8.00000000E-01  1.50000000E+00  8.00000000E-01  8.00000000E-01  1.50000000E+00
  8.00000000E-01  8.00000000E-01  1.50000000E+00  8.00000000E-01  8.00000000E-01
  1.50000000E+00  8.00000000E-01  8.00000000E-01  1.50000000E+00  8.00000000E-01
  8.00000000E-01  1.50000000E+00  8.00000000E-01  8.00000000E-01  1.50000000E+00
  8.00000000E-01  8.00000000E-01  1.50000000E+00  8.00000000E-01  8.00000000E-01
  1.50000000E+00  8.00000000E-01  8.00000000E-01  1.50000000E+00  8.00000000E-01
  8.00000000E-01  1.50000000E+00  8.00000000E-01  8.00000000E-01  1.50000000E+00
  8.00000000E-01  8.00000000E-01  1.50000000E+00  8.00000000E-01  8.00000000E-01
  1.50000000E+00  8.00000000E-01  8.00000000E-01  1.50000000E+00  8.00000000E-01
  8.00000000E-01  1.50000000E+00  8.00000000E-01  8.00000000E-01  1.50000000E+00
  8.00000000E-01  8.00000000E-01  1.50000000E+00  8.00000000E-01  8.00000000E-01
  1.50000000E+00  8.00000000E-01  8.00000000E-01  1.50000000E+00  8.00000000E-01
  8.00000000E-01  1.50000000E+00  8.00000000E-01  8.00000000E-01  1.50000000E+00
  8.00000000E-01  8.00000000E-01  1.50000000E+00  8.00000000E-01  8.00000000E-01
  1.50000000E+00  8.00000000E-01  8.00000000E-01  1.50000000E+00  8.00000000E-01
  8.00000000E-01  1.50000000E+00  8.00000000E-01  8.00000000E-01  1.50000000E+00
  8.00000000E-01  8.00000000E-01  1.50000000E+00  8.00000000E-01  8.00000000E-01
  1.50000000E+00  8.00000000E-01  8.00000000E-01  1.50000000E+00  8.00000000E-01
  8.00000000E-01  1.50000000E+00  8.00000000E-01  8.00000000E-01  1.50000000E+00
  8.00000000E-01  8.00000000E-01  1.50000000E+00  8.00000000E-01  8.00000000E-01
  1.50000000E+00  8.00000000E-01  8.00000000E-01  1.50000000E+00  8.00000000E-01
  8.00000000E-01  1.50000000E+00  8.00000000E-01  8.00000000E-01  1.50000000E+00
  8.00000000E-01  8.00000000E-01  1.50000000E+00  8.00000000E-01  8.00000000E-01
  1.50000000E+00  8.00000000E-01  8.00000000E-01  1.50000000E+00  8.00000000E-01
  8.00000000E-01  1.50000000E+00  8.00000000E-01  8.00000000E-01  1.50000000E+00
  8.00000000E-01  8.00000000E-01  1.50000000E+00  8.00000000E-01  8.00000000E-01
  1.50000000E+00  8.00000000E-01  8.00000000E-01  1.50000000E+00  8.00000000E-01
  8.00000000E-01  1.50000000E+00  8.00000000E-01  8.00000000E-01  1.50000000E+00
  8.00000000E-01  8.00000000E-01  1.50000000E+00  8.00000000E-01  8.00000000E-01
  1.50000000E+00  8.00000000E-01  8.00000000E-01  1.50000000E+00  8.00000000E-01
  8.00000000E-01  1.50000000E+00  8.00000000E-01  8.00000000E-01  1.50000000E+00
  8.00000000E-01  8.00000000E-01  1.50000000E+00  8.00000000E-01  8.00000000E-01
  1.50000000E+00  8.00000000E-01  8.00000000E-01  1.50000000E+00  8.00000000E-01
  8.00000000E-01  1.50000000E+00  8.00000000E-01  8.00000000E-01  1.50000000E+00
  8.00000000E-01  8.00000000E-01  1.50000000E+00  8.00000000E-01  8.00000000E-01
  1.50000000E+00  8.00000000E-01  8.00000000E-01  1.50000000E+00  8.00000000E-01
  8.00000000E-01  1.50000000E+00  8.00000000E-01  8.00000000E-01  1.50000000E+00
  8.00000000E-01  8.00000000E-01  1.50000000E+00  8.00000000E-01  8.00000000E-01
  1.50000000E+00  8.00000000E-01  8.00000000E-01  1.50000000E+00  8.00000000E-01
  8.00000000E-01  1.50000000E+00  8.00000000E-01  8.00000000E-01  1.50000000E+00
  8.00000000E-01  8.00000000E-01  1.50000000E+00  8.00000000E-01  8.00000000E-01
  1.50000000E+00  8.00000000E-01  8.00000000E-01  1.50000000E+00  8.00000000E-01
  8.00000000E-01  1.50000000E+00  8.00000000E-01  8.00000000E-01  1.50000000E+00
  8.00000000E-01  8.00000000E-01  1.50000000E+00  8.00000000E-01  8.00000000E-01
  1.50000000E+00  8.00000000E-01  8.00000000E-01  1.50000000E+00  8.00000000E-01
  8.00000000E-01  1.50000000E+00  8.00000000E-01  8.00000000E-01  1.50000000E+00
  8.00000000E-01  8.00000000E-01  1.50000000E+00  8.00000000E-01  8.00000000E-01
  1.50000000E+00  8.00000000E-01  8.00000000E-01  1.50000000E+00  8.00000000E-01
  8.00000000E-01  1.50000000E+00  8.00000000E-01  8.00000000E-01  1.50000000E+00
  8.00000000E-01  8.00000000E-01  1.50000000E+00  8.00000000E-01  8.00000000E-01
  1.50000000E+00  8.00000000E-01  8.00000000E-01  1.50000000E+00  8.00000000E-01
  8.00000000E-01  1.50000000E+00  8.00000000E-01  8.00000000E-01  1.50000000E+00
  8.00000000E-01  8.00000000E-01  1.50000000E+00  8.00000000E-01  8.00000000E-01
  1.50000000E+00  8.00000000E-01  8.00000000E-01  1.50000000E+00  8.00000000E-01
  8.00000000E-01  1.50000000E+00  8.00000000E-01  8.00000000E-01  1.50000000E+00
  8.00000000E-01  8.00000000E-01  1.50000000E+00  8.00000000E-01  8.00000000E-01
  1.50000000E+00  8.00000000E-01  8.00000000E-01  1.50000000E+00  8.00000000E-01
  8.00000000E-01  1.50000000E+00  8.00000000E-01  8.00000000E-01  1.50000000E+00
  8.00000000E-01  8.00000000E-01  1.50000000E+00  8.00000000E-01  8.00000000E-01
  1.50000000E+00  8.00000000E-01  8.00000000E-01  1.50000000E+00  8.00000000E-01
  8.00000000E-01  1.50000000E+00  8.00000000E-01  8.00000000E-01  1.50000000E+00
  8.00000000E-01  8.00000000E-01  1.50000000E+00  8.00000000E-01  8.00000000E-01
  1.50000000E+00  8.00000000E-01  8.00000000E-01  1.50000000E+00  8.00000000E-01
  8.00000000E-01  1.50000000E+00  8.00000000E-01  8.00000000E-01  1.50000000E+00
  8.00000000E-01  8.00000000E-01  1.50000000E+00  8.00000000E-01  8.00000000E-01
  1.50000000E+00  8.00000000E-01  8.00000000E-01  1.50000000E+00  8.00000000E-01
  8.00000000E-01  1.50000000E+00  8.00000000E-01  8.00000000E-01  1.50000000E+00
  8.00000000E-01  8.00000000E-01  1.50000000E+00  8.00000000E-01  8.00000000E-01
  1.50000000E+00  8.00000000E-01  8.00000000E-01  1.50000000E+00  8.00000000E-01
  8.00000000E-01  1.50000000E+00  8.00000000E-01  8.00000000E-01  1.50000000E+00
  8.00000000E-01  8.00000000E-01  1.50000000E+00  8.00000000E-01  8.00000000E-01
  1.50000000E+00  8.00000000E-01  8.00000000E-01  1.50000000E+00  8.00000000E-01
  8.00000000E-01  1.50000000E+00  8.00000000E-01  8.00000000E-01  1.50000000E+00
  8.00000000E-01  8.00000000E-01  1.50000000E+00  8.00000000E-01  8.00000000E-01
  1.50000000E+00  8.00000000E-01  8.00000000E-01  1.50000000E+00  8.00000000E-01
  8.00000000E-01  1.50000000E+00  8.00000000E-01  8.00000000E-01  1.50000000E+00
  8.00000000E-01  8.00000000E-01  1.50000000E+00  8.00000000E-01  8.00000000E-01
  1.50000000E+00  8.00000000E-01  8.00000000E-01  1.50000000E+00  8.00000000E-01
  8.00000000E-01  1.50000000E+00  8.00000000E-01  8.00000000E-01  1.50000000E+00
  8.00000000E-01  8.00000000E-01  1.50000000E+00  8.00000000E-01  8.00000000E-01
  1.50000000E+00  8.00000000E-01  8.00000000E-01  1.50000000E+00  8.00000000E-01
  8.00000000E-01  1.50000000E+00  8.00000000E-01  8.00000000E-01  1.50000000E+00
  8.00000000E-01  8.00000000E-01  1.50000000E+00  8.00000000E-01  8.00000000E-01
  1.50000000E+00  8.00000000E-01  8.00000000E-01  1.50000000E+00  8.00000000E-01
  8.00000000E-01  1.50000000E+00  8.00000000E-01  8.00000000E-01  1.50000000E+00
  8.00000000E-01  8.00000000E-01  1.50000000E+00  8.00000000E-01  8.00000000E-01
  1.50000000E+00  8.00000000E-01  8.00000000E-01  1.50000000E+00  8.00000000E-01
  8.00000000E-01  1.50000000E+00  8.00000000E-01  8.00000000E-01  1.50000000E+00
  8.00000000E-01  8.00000000E-01  1.50000000E+00  8.00000000E-01  8.00000000E-01
  1.50000000E+00  8.00000000E-01  8.00000000E-01  1.50000000E+00  8.00000000E-01
  8.00000000E-01  1.50000000E+00  8.00000000E-01  8.00000000E-01  1.50000000E+00
  8.00000000E-01  8.00000000E-01  1.50000000E+00  8.00000000E-01  8.00000000E-01
  1.50000000E+00  8.00000000E-01  8.00000000E-01  1.50000000E+00  8.00000000E-01
  8.00000000E-01  1.50000000E+00  8.00000000E-01  8.00000000E-01  1.50000000E+00
  8.00000000E-01  8.00000000E-01  1.50000000E+00  8.00000000E-01  8.00000000E-01
  1.50000000E+00  8.00000000E-01  8.00000000E-01  1.50000000E+00  8.00000000E-01
  8.00000000E-01  1.50000000E+00  8.00000000E-01  8.00000000E-01  1.50000000E+00
  8.00000000E-01  8.00000000E-01  1.50000000E+00  8.00000000E-01  8.00000000E-01
  1.50000000E+00  8.00000000E-01  8.00000000E-01  1.50000000E+00  8.00000000E-01
  8.00000000E-01  1.50000000E+00  8.00000000E-01  8.00000000E-01  1.50000000E+00
  8.00000000E-01  8.00000000E-01  1.50000000E+00  8.00000000E-01  8.00000000E-01
  1.50000000E+00  8.00000000E-01  8.00000000E-01  1.50000000E+00  8.00000000E-01
  8.00000000E-01  1.50000000E+00  8.00000000E-01  8.00000000E-01  1.50000000E+00
  8.00000000E-01  8.00000000E-01  1.50000000E+00  8.00000000E-01  8.00000000E-01
  1.50000000E+00  8.00000000E-01  8.00000000E-01  1.50000000E+00  8.00000000E-01
  8.00000000E-01  1.50000000E+00  8.00000000E-01  8.00000000E-01  1.50000000E+00
  8.00000000E-01  8.00000000E-01  1.50000000E+00  8.00000000E-01  8.00000000E-01
  1.50000000E+00  8.00000000E-01  8.00000000E-01  1.50000000E+00  8.00000000E-01
  8.00000000E-01  1.50000000E+00  8.00000000E-01  8.00000000E-01  1.50000000E+00
  8.00000000E-01  8.00000000E-01  1.50000000E+00  8.00000000E-01  8.00000000E-01
  1.50000000E+00  8.00000000E-01  8.00000000E-01  1.50000000E+00  8.00000000E-01
  8.00000000E-01  1.50000000E+00  8.00000000E-01  8.00000000E-01  1.50000000E+00
  8.00000000E-01  8.00000000E-01  1.50000000E+00  8.00000000E-01  8.00000000E-01
  1.50000000E+00  8.00000000E-01  8.00000000E-01  1.50000000E+00  8.00000000E-01
  8.00000000E-01  1.50000000E+00  8.00000000E-01  8.00000000E-01  1.50000000E+00
  8.00000000E-01  8.00000000E-01  1.50000000E+00  8.00000000E-01  8.00000000E-01
  1.50000000E+00  8.00000000E-01  8.00000000E-01  1.50000000E+00  8.00000000E-01
  8.00000000E-01  1.50000000E+00  8.00000000E-01  8.00000000E-01  1.50000000E+00
  8.00000000E-01  8.00000000E-01  1.50000000E+00  8.00000000E-01  8.00000000E-01
  1.50000000E+00  8.00000000E-01  8.00000000E-01  1.50000000E+00  8.00000000E-01
  8.00000000E-01  1.50000000E+00  8.00000000E-01  8.00000000E-01  1.50000000E+00
  8.00000000E-01  8.00000000E-01  1.50000000E+00  8.00000000E-01  8.00000000E-01
  1.50000000E+00  8.00000000E-01  8.00000000E-01  1.50000000E+00  8.00000000E-01
  8.00000000E-01  1.50000000E+00  8.00000000E-01  8.00000000E-01  1.50000000E+00
  8.00000000E-01  8.00000000E-01  1.50000000E+00  8.00000000E-01  8.00000000E-01
  1.50000000E+00  8.00000000E-01  8.00000000E-01  1.50000000E+00  8.00000000E-01
  8.00000000E-01  1.50000000E+00  8.00000000E-01  8.00000000E-01  1.50000000E+00
  8.00000000E-01  8.00000000E-01  1.50000000E+00  8.00000000E-01  8.00000000E-01
  1.50000000E+00  8.00000000E-01  8.00000000E-01  1.50000000E+00  8.00000000E-01
  8.00000000E-01  1.50000000E+00  8.00000000E-01  8.00000000E-01  1.50000000E+00
  8.00000000E-01  8.00000000E-01  1.50000000E+00  8.00000000E-01  8.00000000E-01
  1.50000000E+00  8.00000000E-01  8.00000000E-01  1.50000000E+00  8.00000000E-01
  8.00000000E-01  1.50000000E+00  8.00000000E-01  8.00000000E-01  1.50000000E+00
  8.00000000E-01  8.00000000E-01  1.50000000E+00  8.00000000E-01  8.00000000E-01
  1.50000000E+00  8.00000000E-01  8.00000000E-01  1.50000000E+00  8.00000000E-01
  8.00000000E-01  1.50000000E+00  8.00000000E-01  8.00000000E-01  1.50000000E+00
  8.00000000E-01  8.00000000E-01  1.50000000E+00  8.00000000E-01  8.00000000E-01
  1.50000000E+00  8.00000000E-01  8.00000000E-01  1.50000000E+00  8.00000000E-01
  8.00000000E-01  1.50000000E+00  8.00000000E-01  8.00000000E-01  1.50000000E+00
  8.00000000E-01  8.00000000E-01  1.50000000E+00  8.00000000E-01  8.00000000E-01
  1.50000000E+00  8.00000000E-01  8.00000000E-01  1.50000000E+00  8.00000000E-01
  8.00000000E-01  1.50000000E+00  8.00000000E-01  8.00000000E-01  1.50000000E+00
  8.00000000E-01  8.00000000E-01  1.50000000E+00  8.00000000E-01  8.00000000E-01
  1.50000000E+00  8.00000000E-01  8.00000000E-01  1.50000000E+00  8.00000000E-01
  8.00000000E-01  1.50000000E+00  8.00000000E-01  8.00000000E-01  1.50000000E+00
  8.00000000E-01  8.00000000E-01  1.50000000E+00  8.00000000E-01  8.00000000E-01
  1.50000000E+00  8.00000000E-01  8.00000000E-01  1.50000000E+00  8.00000000E-01
  8.00000000E-01  1.50000000E+00  8.00000000E-01  8.00000000E-01  1.50000000E+00
  8.00000000E-01  8.00000000E-01  1.50000000E+00  8.00000000E-01  8.00000000E-01
  1.50000000E+00  8.00000000E-01  8.00000000E-01  1.50000000E+00  8.00000000E-01
  8.00000000E-01  1.50000000E+00  8.00000000E-01  8.00000000E-01  1.50000000E+00
  8.00000000E-01  8.00000000E-01  1.50000000E+00  8.00000000E-01  8.00000000E-01
  1.50000000E+00  8.00000000E-01  8.00000000E-01  1.50000000E+00  8.00000000E-01
  8.00000000E-01  1.50000000E+00  8.00000000E-01  8.00000000E-01  1.50000000E+00
  8.00000000E-01  8.00000000E-01  1.50000000E+00  8.00000000E-01  8.00000000E-01
  1.50000000E+00  8.00000000E-01  8.00000000E-01  1.50000000E+00  8.00000000E-01
  8.00000000E-01  1.50000000E+00  8.00000000E-01  8.00000000E-01  1.50000000E+00
  8.00000000E-01  8.00000000E-01  1.50000000E+00  8.00000000E-01  8.00000000E-01
  1.50000000E+00  8.00000000E-01  8.00000000E-01  1.50000000E+00  8.00000000E-01
  8.00000000E-01  1.50000000E+00  8.00000000E-01  8.00000000E-01  1.50000000E+00
  8.00000000E-01  8.00000000E-01  1.50000000E+00  8.00000000E-01  8.00000000E-01
  1.50000000E+00  8.00000000E-01  8.00000000E-01  1.50000000E+00  8.00000000E-01
  8.00000000E-01  1.50000000E+00  8.00000000E-01  8.00000000E-01  1.50000000E+00
  8.00000000E-01  8.00000000E-01  1.50000000E+00  8.00000000E-01  8.00000000E-01
  1.50000000E+00  8.00000000E-01  8.00000000E-01  1.50000000E+00  8.00000000E-01
  8.00000000E-01  1.50000000E+00  8.00000000E-01  8.00000000E-01  1.50000000E+00
  8.00000000E-01  8.00000000E-01  1.50000000E+00  8.00000000E-01  8.00000000E-01
  1.50000000E+00  8.00000000E-01  8.00000000E-01  1.50000000E+00  8.00000000E-01
  8.00000000E-01  1.50000000E+00  8.00000000E-01  8.00000000E-01  1.50000000E+00
  8.00000000E-01  8.00000000E-01  1.50000000E+00  8.00000000E-01  8.00000000E-01
  1.50000000E+00  8.00000000E-01  8.00000000E-01  1.50000000E+00  8.00000000E-01
  8.00000000E-01  1.50000000E+00  8.00000000E-01  8.00000000E-01  1.50000000E+00
  8.00000000E-01  8.00000000E-01  1.50000000E+00  8.00000000E-01  8.00000000E-01
  1.50000000E+00  8.00000000E-01  8.00000000E-01  1.50000000E+00  8.00000000E-01
  8.00000000E-01  1.50000000E+00  8.00000000E-01  8.00000000E-01  1.50000000E+00
  8.00000000E-01  8.00000000E-01  1.50000000E+00  8.00000000E-01  8.00000000E-01
  1.50000000E+00  8.00000000E-01  8.00000000E-01  1.50000000E+00  8.00000000E-01
  8.00000000E-01  1.50000000E+00  8.00000000E-01  8.00000000E-01  1.50000000E+00
  8.00000000E-01  8.00000000E-01  1.50000000E+00  8.00000000E-01  8.00000000E-01
  1.50000000E+00  8.00000000E-01  8.00000000E-01  1.50000000E+00  8.00000000E-01
  8.00000000E-01  1.50000000E+00  8.00000000E-01  8.00000000E-01  1.50000000E+00
  8.00000000E-01  8.00000000E-01  1.50000000E+00  8.00000000E-01  8.00000000E-01
  1.50000000E+00  8.00000000E-01  8.00000000E-01  1.50000000E+00  8.00000000E-01
  8.00000000E-01  1.50000000E+00  8.00000000E-01  8.00000000E-01  1.50000000E+00
  8.00000000E-01  8.00000000E-01  1.50000000E+00  8.00000000E-01  8.00000000E-01
  1.50000000E+00  8.00000000E-01  8.00000000E-01  1.50000000E+00  8.00000000E-01
  8.00000000E-01  1.50000000E+00  8.00000000E-01  8.00000000E-01  1.50000000E+00
  8.00000000E-01  8.00000000E-01  1.50000000E+00  8.00000000E-01  8.00000000E-01
  1.50000000E+00  8.00000000E-01  8.00000000E-01  1.50000000E+00  8.00000000E-01
  8.00000000E-01  1.50000000E+00  8.00000000E-01  8.00000000E-01  1.50000000E+00
  8.00000000E-01  8.00000000E-01  1.50000000E+00  8.00000000E-01  8.00000000E-01
  1.50000000E+00  8.00000000E-01  8.00000000E-01  1.50000000E+00  8.00000000E-01
  8.00000000E-01  1.50000000E+00  8.00000000E-01  8.00000000E-01  1.50000000E+00
  8.00000000E-01  8.00000000E-01  1.50000000E+00  8.00000000E-01  8.00000000E-01
  1.50000000E+00  8.00000000E-01  8.00000000E-01  1.50000000E+00  8.00000000E-01
  8.00000000E-01  1.50000000E+00  8.00000000E-01  8.00000000E-01  1.50000000E+00
  8.00000000E-01  8.00000000E-01  1.50000000E+00  8.00000000E-01  8.00000000E-01
  1.50000000E+00  8.00000000E-01  8.00000000E-01  1.50000000E+00  8.00000000E-01
  8.00000000E-01  1.50000000E+00  8.00000000E-01  8.00000000E-01  1.50000000E+00
  8.00000000E-01  8.00000000E-01  1.50000000E+00  8.00000000E-01  8.00000000E-01
  1.50000000E+00  8.00000000E-01  8.00000000E-01  1.50000000E+00  8.00000000E-01
  8.00000000E-01  1.50000000E+00  8.00000000E-01  8.00000000E-01  1.50000000E+00
  8.00000000E-01  8.00000000E-01  1.50000000E+00  8.00000000E-01  8.00000000E-01
  1.50000000E+00  8.00000000E-01  8.00000000E-01  1.50000000E+00  8.00000000E-01
  8.00000000E-01  1.50000000E+00  8.00000000E-01  8.00000000E-01  1.50000000E+00
  8.00000000E-01  8.00000000E-01  1.50000000E+00  8.00000000E-01  8.00000000E-01
  1.50000000E+00  8.00000000E-01  8.00000000E-01  1.50000000E+00  8.00000000E-01
  8.00000000E-01  1.50000000E+00  8.00000000E-01  8.00000000E-01  1.50000000E+00
  8.00000000E-01  8.00000000E-01  1.50000000E+00  8.00000000E-01  8.00000000E-01
  1.50000000E+00  8.00000000E-01  8.00000000E-01  1.50000000E+00  8.00000000E-01
  8.00000000E-01  1.50000000E+00  8.00000000E-01  8.00000000E-01  1.50000000E+00
  8.00000000E-01  8.00000000E-01  1.50000000E+00  8.00000000E-01  8.00000000E-01
  1.50000000E+00  8.00000000E-01  8.00000000E-01  1.50000000E+00  8.00000000E-01
  8.00000000E-01  1.50000000E+00  8.00000000E-01  8.00000000E-01  1.50000000E+00
  8.00000000E-01  8.00000000E-01  1.50000000E+00  8.00000000E-01  8.00000000E-01
  1.50000000E+00  8.00000000E-01  8.00000000E-01  1.50000000E+00  8.00000000E-01
  8.00000000E-01  1.50000000E+00  8.00000000E-01  8.00000000E-01  1.50000000E+00
  8.00000000E-01  8.00000000E-01  1.50000000E+00  8.00000000E-01  8.00000000E-01
  1.50000000E+00  8.00000000E-01  8.00000000E-01  1.50000000E+00  8.00000000E-01
  8.00000000E-01  1.50000000E+00  8.00000000E-01  8.00000000E-01  1.50000000E+00
  8.00000000E-01  8.00000000E-01  1.50000000E+00  8.00000000E-01  8.00000000E-01
  1.50000000E+00  8.00000000E-01  8.00000000E-01  1.50000000E+00  8.00000000E-01
  8.00000000E-01  1.50000000E+00  8.00000000E-01  8.00000000E-01  1.50000000E+00
  8.00000000E-01  8.00000000E-01  1.50000000E+00  8.00000000E-01  8.00000000E-01
  1.50000000E+00  8.00000000E-01  8.00000000E-01  1.50000000E+00  8.00000000E-01
  8.00000000E-01  1.50000000E+00  8.00000000E-01  8.00000000E-01  1.50000000E+00
  8.00000000E-01  8.00000000E-01  1.50000000E+00  8.00000000E-01  8.00000000E-01
  1.50000000E+00  8.00000000E-01  8.00000000E-01  1.50000000E+00  8.00000000E-01
  8.00000000E-01  1.50000000E+00  8.00000000E-01  8.00000000E-01  1.50000000E+00
  8.00000000E-01  8.00000000E-01  1.50000000E+00  8.00000000E-01  8.00000000E-01
  1.50000000E+00  8.00000000E-01  8.00000000E-01  1.50000000E+00  8.00000000E-01
  8.00000000E-01  1.50000000E+00  8.00000000E-01  8.00000000E-01  1.50000000E+00
  8.00000000E-01  8.00000000E-01  1.50000000E+00  8.00000000E-01  8.00000000E-01
  1.50000000E+00  8.00000000E-01  8.00000000E-01  1.50000000E+00  8.00000000E-01
  8.00000000E-01  1.50000000E+00  8.00000000E-01  8.00000000E-01  1.50000000E+00
  8.00000000E-01  8.00000000E-01  1.50000000E+00  8.00000000E-01  8.00000000E-01
  1.50000000E+00  8.00000000E-01  8.00000000E-01  1.50000000E+00  8.00000000E-01
  8.00000000E-01  1.50000000E+00  8.00000000E-01  8.00000000E-01  1.50000000E+00
  8.00000000E-01  8.00000000E-01  1.50000000E+00  8.00000000E-01  8.00000000E-01
  1.50000000E+00  8.00000000E-01  8.00000000E-01  1.50000000E+00  8.00000000E-01
  8.00000000E-01  1.50000000E+00  8.00000000E-01  8.00000000E-01  1.50000000E+00
  8.00000000E-01  8.00000000E-01  1.50000000E+00  8.00000000E-01  8.00000000E-01
  1.50000000E+00  8.00000000E-01  8.00000000E-01  1.50000000E+00  8.00000000E-01
  8.00000000E-01  1.50000000E+00  8.00000000E-01  8.00000000E-01  1.50000000E+00
  8.00000000E-01  8.00000000E-01  1.50000000E+00  8.00000000E-01  8.00000000E-01
  1.50000000E+00  8.00000000E-01  8.00000000E-01  1.50000000E+00  8.00000000E-01
  8.00000000E-01  1.50000000E+00  8.00000000E-01  8.00000000E-01  1.50000000E+00
  8.00000000E-01  8.00000000E-01  1.50000000E+00  8.00000000E-01  8.00000000E-01
  1.50000000E+00  8.00000000E-01  8.00000000E-01  1.50000000E+00  8.00000000E-01
  8.00000000E-01  1.50000000E+00  8.00000000E-01  8.00000000E-01  1.50000000E+00
  8.00000000E-01  8.00000000E-01  1.50000000E+00  8.00000000E-01  8.00000000E-01
  1.50000000E+00  8.00000000E-01  8.00000000E-01  1.50000000E+00  8.00000000E-01
  8.00000000E-01  1.50000000E+00  8.00000000E-01  8.00000000E-01  1.50000000E+00
  8.00000000E-01  8.00000000E-01  1.50000000E+00  8.00000000E-01  8.00000000E-01
  1.50000000E+00  8.00000000E-01  8.00000000E-01  1.50000000E+00  8.00000000E-01
  8.00000000E-01  1.50000000E+00  8.00000000E-01  8.00000000E-01  1.50000000E+00
  8.00000000E-01  8.00000000E-01  1.50000000E+00  8.00000000E-01  8.00000000E-01
  1.50000000E+00  8.00000000E-01  8.00000000E-01  1.50000000E+00  8.00000000E-01
  8.00000000E-01  1.50000000E+00  8.00000000E-01  8.00000000E-01  1.50000000E+00
  8.00000000E-01  8.00000000E-01  1.50000000E+00  8.00000000E-01  8.00000000E-01
  1.50000000E+00  8.00000000E-01  8.00000000E-01  1.50000000E+00  8.00000000E-01
  8.00000000E-01  1.50000000E+00  8.00000000E-01  8.00000000E-01  1.50000000E+00
  8.00000000E-01  8.00000000E-01  1.50000000E+00  8.00000000E-01  8.00000000E-01
  1.50000000E+00  8.00000000E-01  8.00000000E-01  1.50000000E+00  8.00000000E-01
  8.00000000E-01  1.50000000E+00  8.00000000E-01  8.00000000E-01  1.50000000E+00
  8.00000000E-01  8.00000000E-01  1.50000000E+00  8.00000000E-01  8.00000000E-01
  1.50000000E+00  8.00000000E-01  8.00000000E-01  1.50000000E+00  8.00000000E-01
  8.00000000E-01  1.50000000E+00  8.00000000E-01  8.00000000E-01  1.50000000E+00
  8.00000000E-01  8.00000000E-01  1.50000000E+00  8.00000000E-01  8.00000000E-01
  1.50000000E+00  8.00000000E-01  8.00000000E-01  1.50000000E+00  8.00000000E-01
  8.00000000E-01  1.50000000E+00  8.00000000E-01  8.00000000E-01  1.50000000E+00
  8.00000000E-01  8.00000000E-01  1.50000000E+00  8.00000000E-01  8.00000000E-01
  1.50000000E+00  8.00000000E-01  8.00000000E-01  1.50000000E+00  8.00000000E-01
  8.00000000E-01  1.50000000E+00  8.00000000E-01  8.00000000E-01  1.50000000E+00
  8.00000000E-01  8.00000000E-01  1.50000000E+00  8.00000000E-01  8.00000000E-01
  1.50000000E+00  8.00000000E-01  8.00000000E-01  1.50000000E+00  8.00000000E-01
  8.00000000E-01  1.50000000E+00  8.00000000E-01  8.00000000E-01  1.50000000E+00
  8.00000000E-01  8.00000000E-01  1.50000000E+00  8.00000000E-01  8.00000000E-01
  1.50000000E+00  8.00000000E-01  8.00000000E-01  1.50000000E+00  8.00000000E-01
  8.00000000E-01  1.50000000E+00  8.00000000E-01  8.00000000E-01  1.50000000E+00
  8.00000000E-01  8.00000000E-01  1.50000000E+00  8.00000000E-01  8.00000000E-01
  1.50000000E+00  8.00000000E-01  8.00000000E-01  1.50000000E+00  8.00000000E-01
  8.00000000E-01  1.50000000E+00  8.00000000E-01  8.00000000E-01  1.50000000E+00
  8.00000000E-01  8.00000000E-01  1.50000000E+00  8.00000000E-01  8.00000000E-01
  1.50000000E+00  8.00000000E-01  8.00000000E-01  1.50000000E+00  8.00000000E-01
  8.00000000E-01  1.50000000E+00  8.00000000E-01  8.00000000E-01  1.50000000E+00
  8.00000000E-01  8.00000000E-01  1.50000000E+00  8.00000000E-01  8.00000000E-01
  1.50000000E+00  8.00000000E-01  8.00000000E-01  1.50000000E+00  8.00000000E-01
  8.00000000E-01  1.50000000E+00  8.00000000E-01  8.00000000E-01  1.50000000E+00
  8.00000000E-01  8.00000000E-01  1.50000000E+00  8.00000000E-01  8.00000000E-01
  1.50000000E+00  8.00000000E-01  8.00000000E-01  1.50000000E+00  8.00000000E-01
  8.00000000E-01  1.50000000E+00  8.00000000E-01  8.00000000E-01  1.50000000E+00
  8.00000000E-01  8.00000000E-01  1.50000000E+00  8.00000000E-01  8.00000000E-01
  1.50000000E+00  8.00000000E-01  8.00000000E-01  1.50000000E+00  8.00000000E-01
  8.00000000E-01  1.50000000E+00  8.00000000E-01  8.00000000E-01  1.50000000E+00
  8.00000000E-01  8.00000000E-01  1.50000000E+00  8.00000000E-01  8.00000000E-01
  1.50000000E+00  8.00000000E-01  8.00000000E-01  1.50000000E+00  8.00000000E-01
  8.00000000E-01  1.50000000E+00  8.00000000E-01  8.00000000E-01  1.50000000E+00
  8.00000000E-01  8.00000000E-01  1.50000000E+00  8.00000000E-01  8.00000000E-01
  1.50000000E+00  8.00000000E-01  8.00000000E-01  1.50000000E+00  8.00000000E-01
  8.00000000E-01  1.50000000E+00  8.00000000E-01  8.00000000E-01  1.50000000E+00
  8.00000000E-01  8.00000000E-01  1.50000000E+00  8.00000000E-01  8.00000000E-01
  1.50000000E+00  8.00000000E-01  8.00000000E-01  1.50000000E+00  8.00000000E-01
  8.00000000E-01  1.50000000E+00  8.00000000E-01  8.00000000E-01  1.50000000E+00
  8.00000000E-01  8.00000000E-01  1.50000000E+00  8.00000000E-01  8.00000000E-01
  1.50000000E+00  8.00000000E-01  8.00000000E-01  1.50000000E+00  8.00000000E-01
  8.00000000E-01  1.50000000E+00  8.00000000E-01  8.00000000E-01  1.50000000E+00
  8.00000000E-01  8.00000000E-01  1.50000000E+00  8.00000000E-01  8.00000000E-01
  1.50000000E+00  8.00000000E-01  8.00000000E-01  1.50000000E+00  8.00000000E-01
  8.00000000E-01  1.50000000E+00  8.00000000E-01  8.00000000E-01  1.50000000E+00
  8.00000000E-01  8.00000000E-01  1.50000000E+00  8.00000000E-01  8.00000000E-01
  1.50000000E+00  8.00000000E-01  8.00000000E-01  1.50000000E+00  8.00000000E-01
  8.00000000E-01  1.50000000E+00  8.00000000E-01  8.00000000E-01  1.50000000E+00
  8.00000000E-01  8.00000000E-01  1.50000000E+00  8.00000000E-01  8.00000000E-01
  1.50000000E+00  8.00000000E-01  8.00000000E-01  1.50000000E+00  8.00000000E-01
  8.00000000E-01  1.50000000E+00  8.00000000E-01  8.00000000E-01  1.50000000E+00
  8.00000000E-01  8.00000000E-01  1.50000000E+00  8.00000000E-01  8.00000000E-01
  1.50000000E+00  8.00000000E-01  8.00000000E-01  1.50000000E+00  8.00000000E-01
  8.00000000E-01  1.50000000E+00  8.00000000E-01  8.00000000E-01  1.50000000E+00
  8.00000000E-01  8.00000000E-01  1.50000000E+00  8.00000000E-01  8.00000000E-01
  1.50000000E+00  8.00000000E-01  8.00000000E-01  1.50000000E+00  8.00000000E-01
  8.00000000E-01  1.50000000E+00  8.00000000E-01  8.00000000E-01  1.50000000E+00
  8.00000000E-01  8.00000000E-01  1.50000000E+00  8.00000000E-01  8.00000000E-01
  1.50000000E+00  8.00000000E-01  8.00000000E-01  1.50000000E+00  8.00000000E-01
  8.00000000E-01  1.50000000E+00  8.00000000E-01  8.00000000E-01  1.50000000E+00
  8.00000000E-01  8.00000000E-01  1.50000000E+00  8.00000000E-01  8.00000000E-01
  1.50000000E+00  8.00000000E-01  8.00000000E-01  1.50000000E+00  8.00000000E-01
  8.00000000E-01  1.50000000E+00  8.00000000E-01  8.00000000E-01  1.50000000E+00
  8.00000000E-01  8.00000000E-01  1.50000000E+00  8.00000000E-01  8.00000000E-01
  1.50000000E+00  8.00000000E-01  8.00000000E-01  1.50000000E+00  8.00000000E-01
  8.00000000E-01  1.50000000E+00  8.00000000E-01  8.00000000E-01  1.50000000E+00
  8.00000000E-01  8.00000000E-01  1.50000000E+00  8.00000000E-01  8.00000000E-01
  1.50000000E+00  8.00000000E-01  8.00000000E-01  1.50000000E+00  8.00000000E-01
  8.00000000E-01  1.50000000E+00  8.00000000E-01  8.00000000E-01  1.50000000E+00
  8.00000000E-01  8.00000000E-01  1.50000000E+00  8.00000000E-01  8.00000000E-01
  1.50000000E+00  8.00000000E-01  8.00000000E-01  1.50000000E+00  8.00000000E-01
  8.00000000E-01  1.50000000E+00  8.00000000E-01  8.00000000E-01  1.50000000E+00
  8.00000000E-01  8.00000000E-01  1.50000000E+00  8.00000000E-01  8.00000000E-01
  1.50000000E+00  8.00000000E-01  8.00000000E-01  1.50000000E+00  8.00000000E-01
  8.00000000E-01  1.50000000E+00  8.00000000E-01  8.00000000E-01  1.50000000E+00
  8.00000000E-01  8.00000000E-01  1.50000000E+00  8.00000000E-01  8.00000000E-01
  1.50000000E+00  8.00000000E-01  8.00000000E-01  1.50000000E+00  8.00000000E-01
  8.00000000E-01  1.50000000E+00  8.00000000E-01  8.00000000E-01  1.50000000E+00
  8.00000000E-01  8.00000000E-01  1.50000000E+00  8.00000000E-01  8.00000000E-01
  1.50000000E+00  8.00000000E-01  8.00000000E-01  1.50000000E+00  8.00000000E-01
  8.00000000E-01  1.50000000E+00  8.00000000E-01  8.00000000E-01  1.50000000E+00
  8.00000000E-01  8.00000000E-01  1.50000000E+00  8.00000000E-01  8.00000000E-01
  1.50000000E+00  8.00000000E-01  8.00000000E-01  1.50000000E+00  8.00000000E-01
  8.00000000E-01  1.50000000E+00  8.00000000E-01  8.00000000E-01  1.50000000E+00
  8.00000000E-01  8.00000000E-01  1.50000000E+00  8.00000000E-01  8.00000000E-01
  1.50000000E+00  8.00000000E-01  8.00000000E-01  1.50000000E+00  8.00000000E-01
  8.00000000E-01  1.50000000E+00  8.00000000E-01  8.00000000E-01  1.50000000E+00
  8.00000000E-01  8.00000000E-01  1.50000000E+00  8.00000000E-01  8.00000000E-01
  1.50000000E+00  8.00000000E-01  8.00000000E-01  1.50000000E+00  8.00000000E-01
  8.00000000E-01  1.50000000E+00  8.00000000E-01  8.00000000E-01  1.50000000E+00
  8.00000000E-01  8.00000000E-01  1.50000000E+00  8.00000000E-01  8.00000000E-01
  1.50000000E+00  8.00000000E-01  8.00000000E-01  1.50000000E+00  8.00000000E-01
  8.00000000E-01  1.50000000E+00  8.00000000E-01  8.00000000E-01  1.50000000E+00
  8.00000000E-01  8.00000000E-01  1.50000000E+00  8.00000000E-01  8.00000000E-01
  1.50000000E+00  8.00000000E-01  8.00000000E-01  1.50000000E+00  8.00000000E-01
  8.00000000E-01  1.50000000E+00  8.00000000E-01  8.00000000E-01  1.50000000E+00
  8.00000000E-01  8.00000000E-01  1.50000000E+00  8.00000000E-01  8.00000000E-01
  1.50000000E+00  8.00000000E-01  8.00000000E-01  1.50000000E+00  8.00000000E-01
  8.00000000E-01  1.50000000E+00  8.00000000E-01  8.00000000E-01  1.50000000E+00
  8.00000000E-01  8.00000000E-01  1.50000000E+00  8.00000000E-01  8.00000000E-01
  1.50000000E+00  8.00000000E-01  8.00000000E-01  1.50000000E+00  8.00000000E-01
  8.00000000E-01  1.50000000E+00  8.00000000E-01  8.00000000E-01  1.50000000E+00
  8.00000000E-01  8.00000000E-01  1.50000000E+00  8.00000000E-01  8.00000000E-01
  1.50000000E+00  8.00000000E-01  8.00000000E-01  1.50000000E+00  8.00000000E-01
  8.00000000E-01  1.50000000E+00  8.00000000E-01  8.00000000E-01  1.50000000E+00
  8.00000000E-01  8.00000000E-01  1.50000000E+00  8.00000000E-01  8.00000000E-01
  1.50000000E+00  8.00000000E-01  8.00000000E-01  1.50000000E+00  8.00000000E-01
  8.00000000E-01  1.50000000E+00  8.00000000E-01  8.00000000E-01  1.50000000E+00
  8.00000000E-01  8.00000000E-01  1.50000000E+00  8.00000000E-01  8.00000000E-01
  1.50000000E+00  8.00000000E-01  8.00000000E-01  1.50000000E+00  8.00000000E-01
  8.00000000E-01  1.50000000E+00  8.00000000E-01  8.00000000E-01  1.50000000E+00
  8.00000000E-01  8.00000000E-01  1.50000000E+00  8.00000000E-01  8.00000000E-01
  1.50000000E+00  8.00000000E-01  8.00000000E-01  1.50000000E+00  8.00000000E-01
  8.00000000E-01  1.50000000E+00  8.00000000E-01  8.00000000E-01  1.50000000E+00
  8.00000000E-01  8.00000000E-01  1.50000000E+00  8.00000000E-01  8.00000000E-01
  1.50000000E+00  8.00000000E-01  8.00000000E-01  1.50000000E+00  8.00000000E-01
  8.00000000E-01  1.50000000E+00  8.00000000E-01  8.00000000E-01  1.50000000E+00
  8.00000000E-01  8.00000000E-01  1.50000000E+00  8.00000000E-01  8.00000000E-01
  1.50000000E+00  8.00000000E-01  8.00000000E-01  1.50000000E+00  8.00000000E-01
  8.00000000E-01  1.50000000E+00  8.00000000E-01  8.00000000E-01  1.50000000E+00
  8.00000000E-01  8.00000000E-01  1.50000000E+00  8.00000000E-01  8.00000000E-01
  1.50000000E+00  8.00000000E-01  8.00000000E-01  1.50000000E+00  8.00000000E-01
  8.00000000E-01  1.50000000E+00  8.00000000E-01  8.00000000E-01  1.50000000E+00
  8.00000000E-01  8.00000000E-01  1.50000000E+00  8.00000000E-01  8.00000000E-01
  1.50000000E+00  8.00000000E-01  8.00000000E-01  1.50000000E+00  8.00000000E-01
  8.00000000E-01  1.50000000E+00  8.00000000E-01  8.00000000E-01  1.50000000E+00
  8.00000000E-01  8.00000000E-01  1.50000000E+00  8.00000000E-01  8.00000000E-01
  1.50000000E+00  8.00000000E-01  8.00000000E-01  1.50000000E+00  8.00000000E-01
  8.00000000E-01  1.50000000E+00  8.00000000E-01  8.00000000E-01  1.50000000E+00
  8.00000000E-01  8.00000000E-01  1.50000000E+00  8.00000000E-01  8.00000000E-01
  1.50000000E+00  8.00000000E-01  8.00000000E-01  1.50000000E+00  8.00000000E-01
  8.00000000E-01  1.50000000E+00  8.00000000E-01  8.00000000E-01  1.50000000E+00
  8.00000000E-01  8.00000000E-01  1.50000000E+00  8.00000000E-01  8.00000000E-01
  1.50000000E+00  8.00000000E-01  8.00000000E-01  1.50000000E+00  8.00000000E-01
  8.00000000E-01  1.50000000E+00  8.00000000E-01  8.00000000E-01  1.50000000E+00
  8.00000000E-01  8.00000000E-01  1.50000000E+00  8.00000000E-01  8.00000000E-01
  1.50000000E+00  8.00000000E-01  8.00000000E-01  1.50000000E+00  8.00000000E-01
  8.00000000E-01  1.50000000E+00  8.00000000E-01  8.00000000E-01  1.50000000E+00
  8.00000000E-01  8.00000000E-01  1.50000000E+00  8.00000000E-01  8.00000000E-01
  1.50000000E+00  8.00000000E-01  8.00000000E-01  1.50000000E+00  8.00000000E-01
  8.00000000E-01  1.50000000E+00  8.00000000E-01  8.00000000E-01  1.50000000E+00
  8.00000000E-01  8.00000000E-01  1.50000000E+00  8.00000000E-01  8.00000000E-01
  1.50000000E+00  8.00000000E-01  8.00000000E-01  1.50000000E+00  8.00000000E-01
  8.00000000E-01  1.50000000E+00  8.00000000E-01  8.00000000E-01  1.50000000E+00
  8.00000000E-01  8.00000000E-01  1.50000000E+00  8.00000000E-01  8.00000000E-01
  1.50000000E+00  8.00000000E-01  8.00000000E-01  1.50000000E+00  8.00000000E-01
  8.00000000E-01  1.50000000E+00  8.00000000E-01  8.00000000E-01  1.50000000E+00
  8.00000000E-01  8.00000000E-01  1.50000000E+00  8.00000000E-01  8.00000000E-01
  1.50000000E+00  8.00000000E-01  8.00000000E-01  1.50000000E+00  8.00000000E-01
  8.00000000E-01  1.50000000E+00  8.00000000E-01  8.00000000E-01  1.50000000E+00
  8.00000000E-01  8.00000000E-01  1.50000000E+00  8.00000000E-01  8.00000000E-01
  1.50000000E+00  8.00000000E-01  8.00000000E-01  1.50000000E+00  8.00000000E-01
  8.00000000E-01  1.50000000E+00  8.00000000E-01  8.00000000E-01  1.50000000E+00
  8.00000000E-01  8.00000000E-01  1.50000000E+00  8.00000000E-01  8.00000000E-01
  1.50000000E+00  8.00000000E-01  8.00000000E-01  1.50000000E+00  8.00000000E-01
  8.00000000E-01  1.50000000E+00  8.00000000E-01  8.00000000E-01  1.50000000E+00
  8.00000000E-01  8.00000000E-01  1.50000000E+00  8.00000000E-01  8.00000000E-01
  1.50000000E+00  8.00000000E-01  8.00000000E-01  1.50000000E+00  8.00000000E-01
  8.00000000E-01  1.50000000E+00  8.00000000E-01  8.00000000E-01  1.50000000E+00
  8.00000000E-01  8.00000000E-01  1.50000000E+00  8.00000000E-01  8.00000000E-01
  1.50000000E+00  8.00000000E-01  8.00000000E-01  1.50000000E+00  8.00000000E-01
  8.00000000E-01  1.50000000E+00  8.00000000E-01  8.00000000E-01  1.50000000E+00
  8.00000000E-01  8.00000000E-01  1.50000000E+00  8.00000000E-01  8.00000000E-01
  1.50000000E+00  8.00000000E-01  8.00000000E-01  1.50000000E+00  8.00000000E-01
  8.00000000E-01  1.50000000E+00  8.00000000E-01  8.00000000E-01  1.50000000E+00
  8.00000000E-01  8.00000000E-01  1.50000000E+00  8.00000000E-01  8.00000000E-01
  1.50000000E+00  8.00000000E-01  8.00000000E-01  1.50000000E+00  8.00000000E-01
  8.00000000E-01  1.50000000E+00  8.00000000E-01  8.00000000E-01  1.50000000E+00
  8.00000000E-01  8.00000000E-01  1.50000000E+00  8.00000000E-01  8.00000000E-01
  1.50000000E+00  8.00000000E-01  8.00000000E-01  1.50000000E+00  8.00000000E-01
  8.00000000E-01  1.50000000E+00  8.00000000E-01  8.00000000E-01  1.50000000E+00
  8.00000000E-01  8.00000000E-01  1.50000000E+00  8.00000000E-01  8.00000000E-01
  1.50000000E+00  8.00000000E-01  8.00000000E-01  1.50000000E+00  8.00000000E-01
  8.00000000E-01  1.50000000E+00  8.00000000E-01  8.00000000E-01  1.50000000E+00
  8.00000000E-01  8.00000000E-01  1.50000000E+00  8.00000000E-01  8.00000000E-01
  1.50000000E+00  8.00000000E-01  8.00000000E-01  1.50000000E+00  8.00000000E-01
  8.00000000E-01  1.50000000E+00  8.00000000E-01  8.00000000E-01  1.50000000E+00
  8.00000000E-01  8.00000000E-01  1.50000000E+00  8.00000000E-01  8.00000000E-01
  1.50000000E+00  8.00000000E-01  8.00000000E-01  1.50000000E+00  8.00000000E-01
  8.00000000E-01  1.50000000E+00  8.00000000E-01  8.00000000E-01  1.50000000E+00
  8.00000000E-01  8.00000000E-01  1.50000000E+00  8.00000000E-01  8.00000000E-01
  1.50000000E+00  8.00000000E-01  8.00000000E-01  1.50000000E+00  8.00000000E-01
  8.00000000E-01  1.50000000E+00  8.00000000E-01  8.00000000E-01  1.50000000E+00
  8.00000000E-01  8.00000000E-01  1.50000000E+00  8.00000000E-01  8.00000000E-01
  1.50000000E+00  8.00000000E-01  8.00000000E-01  1.50000000E+00  8.00000000E-01
  8.00000000E-01  1.50000000E+00  8.00000000E-01  8.00000000E-01  1.50000000E+00
  8.00000000E-01  8.00000000E-01  1.50000000E+00  8.00000000E-01  8.00000000E-01
  1.50000000E+00  8.00000000E-01  8.00000000E-01  1.50000000E+00  8.00000000E-01
  8.00000000E-01  1.50000000E+00  8.00000000E-01  8.00000000E-01  1.50000000E+00
  8.00000000E-01  8.00000000E-01  1.50000000E+00  8.00000000E-01  8.00000000E-01
  1.50000000E+00  8.00000000E-01  8.00000000E-01  1.50000000E+00  8.00000000E-01
  8.00000000E-01  1.50000000E+00  8.00000000E-01  8.00000000E-01  1.50000000E+00
  8.00000000E-01  8.00000000E-01  1.50000000E+00  8.00000000E-01  8.00000000E-01
  1.50000000E+00  8.00000000E-01  8.00000000E-01  1.50000000E+00  8.00000000E-01
  8.00000000E-01  1.50000000E+00  8.00000000E-01  8.00000000E-01  1.50000000E+00
  8.00000000E-01  8.00000000E-01  1.50000000E+00  8.00000000E-01  8.00000000E-01
  1.50000000E+00  8.00000000E-01  8.00000000E-01  1.50000000E+00  8.00000000E-01
  8.00000000E-01  1.50000000E+00  8.00000000E-01  8.00000000E-01  1.50000000E+00
  8.00000000E-01  8.00000000E-01  1.50000000E+00  8.00000000E-01  8.00000000E-01
  1.50000000E+00  8.00000000E-01  8.00000000E-01  1.50000000E+00  8.00000000E-01
  8.00000000E-01  1.50000000E+00  8.00000000E-01  8.00000000E-01  1.50000000E+00
  8.00000000E-01  8.00000000E-01  1.50000000E+00  8.00000000E-01  8.00000000E-01
  1.50000000E+00  8.00000000E-01  8.00000000E-01  1.50000000E+00  8.00000000E-01
  8.00000000E-01  1.50000000E+00  8.00000000E-01  8.00000000E-01  1.50000000E+00
  8.00000000E-01  8.00000000E-01  1.50000000E+00  8.00000000E-01  8.00000000E-01
  1.50000000E+00  8.00000000E-01  8.00000000E-01  1.50000000E+00  8.00000000E-01
  8.00000000E-01  1.50000000E+00  8.00000000E-01  8.00000000E-01  1.50000000E+00
  8.00000000E-01  8.00000000E-01  1.50000000E+00  8.00000000E-01  8.00000000E-01
  1.50000000E+00  8.00000000E-01  8.00000000E-01  1.50000000E+00  8.00000000E-01
  8.00000000E-01  1.50000000E+00  8.00000000E-01  8.00000000E-01  1.50000000E+00
  8.00000000E-01  8.00000000E-01  1.50000000E+00  8.00000000E-01  8.00000000E-01
  1.50000000E+00  8.00000000E-01  8.00000000E-01  1.50000000E+00  8.00000000E-01
  8.00000000E-01  1.50000000E+00  8.00000000E-01  8.00000000E-01  1.50000000E+00
  8.00000000E-01  8.00000000E-01  1.50000000E+00  8.00000000E-01  8.00000000E-01
  1.50000000E+00  8.00000000E-01  8.00000000E-01  1.50000000E+00  8.00000000E-01
  8.00000000E-01  1.50000000E+00  8.00000000E-01  8.00000000E-01  1.50000000E+00
  8.00000000E-01  8.00000000E-01  1.50000000E+00  8.00000000E-01  8.00000000E-01
  1.50000000E+00  8.00000000E-01  8.00000000E-01  1.50000000E+00  8.00000000E-01
  8.00000000E-01  1.50000000E+00  8.00000000E-01  8.00000000E-01  1.50000000E+00
  8.00000000E-01  8.00000000E-01  1.50000000E+00  8.00000000E-01  8.00000000E-01
  1.50000000E+00  8.00000000E-01  8.00000000E-01  1.50000000E+00  8.00000000E-01
  8.00000000E-01  1.50000000E+00  8.00000000E-01  8.00000000E-01  1.50000000E+00
  8.00000000E-01  8.00000000E-01  1.50000000E+00  8.00000000E-01  8.00000000E-01
  1.50000000E+00  8.00000000E-01  8.00000000E-01  1.50000000E+00  8.00000000E-01
  8.00000000E-01  1.50000000E+00  8.00000000E-01  8.00000000E-01  1.50000000E+00
  8.00000000E-01  8.00000000E-01  1.50000000E+00  8.00000000E-01  8.00000000E-01
  1.50000000E+00  8.00000000E-01  8.00000000E-01  1.50000000E+00  8.00000000E-01
  8.00000000E-01  1.50000000E+00  8.00000000E-01  8.00000000E-01  1.50000000E+00
  8.00000000E-01  8.00000000E-01  1.50000000E+00  8.00000000E-01  8.00000000E-01
  1.50000000E+00  8.00000000E-01  8.00000000E-01  1.50000000E+00  8.00000000E-01
  8.00000000E-01  1.50000000E+00  8.00000000E-01  8.00000000E-01  1.50000000E+00
  8.00000000E-01  8.00000000E-01  1.50000000E+00  8.00000000E-01  8.00000000E-01
  1.50000000E+00  8.00000000E-01  8.00000000E-01  1.50000000E+00  8.00000000E-01
  8.00000000E-01  1.50000000E+00  8.00000000E-01  8.00000000E-01  1.50000000E+00
  8.00000000E-01  8.00000000E-01  1.50000000E+00  8.00000000E-01  8.00000000E-01
  1.50000000E+00  8.00000000E-01  8.00000000E-01  1.50000000E+00  8.00000000E-01
  8.00000000E-01  1.50000000E+00  8.00000000E-01  8.00000000E-01  1.50000000E+00
  8.00000000E-01  8.00000000E-01  1.50000000E+00  8.00000000E-01  8.00000000E-01
  1.50000000E+00  8.00000000E-01  8.00000000E-01  1.50000000E+00  8.00000000E-01
  8.00000000E-01  1.50000000E+00  8.00000000E-01  8.00000000E-01  1.50000000E+00
  8.00000000E-01  8.00000000E-01  1.50000000E+00  8.00000000E-01  8.00000000E-01
  1.50000000E+00  8.00000000E-01  8.00000000E-01  1.50000000E+00  8.00000000E-01
  8.00000000E-01  1.50000000E+00  8.00000000E-01  8.00000000E-01  1.50000000E+00
  8.00000000E-01  8.00000000E-01  1.50000000E+00  8.00000000E-01  8.00000000E-01
  1.50000000E+00  8.00000000E-01  8.00000000E-01  1.50000000E+00  8.00000000E-01
  8.00000000E-01  1.50000000E+00  8.00000000E-01  8.00000000E-01  1.50000000E+00
  8.00000000E-01  8.00000000E-01  1.50000000E+00  8.00000000E-01  8.00000000E-01
  1.50000000E+00  8.00000000E-01  8.00000000E-01  1.50000000E+00  8.00000000E-01
  8.00000000E-01  1.50000000E+00  8.00000000E-01  8.00000000E-01  1.50000000E+00
  8.00000000E-01  8.00000000E-01  1.50000000E+00  8.00000000E-01  8.00000000E-01
  1.50000000E+00  8.00000000E-01  8.00000000E-01  1.50000000E+00  8.00000000E-01
  8.00000000E-01  1.50000000E+00  8.00000000E-01  8.00000000E-01  1.50000000E+00
  8.00000000E-01  8.00000000E-01  1.50000000E+00  8.00000000E-01  8.00000000E-01
  1.50000000E+00  8.00000000E-01  8.00000000E-01  1.50000000E+00  8.00000000E-01
  8.00000000E-01  1.50000000E+00  8.00000000E-01  8.00000000E-01  1.50000000E+00
  8.00000000E-01  8.00000000E-01  1.50000000E+00  8.00000000E-01  8.00000000E-01
  1.50000000E+00  8.00000000E-01  8.00000000E-01  1.50000000E+00  8.00000000E-01
  8.00000000E-01  1.50000000E+00  8.00000000E-01  8.00000000E-01  1.50000000E+00
  8.00000000E-01  8.00000000E-01  1.50000000E+00  8.00000000E-01  8.00000000E-01
  1.50000000E+00  8.00000000E-01  8.00000000E-01  1.50000000E+00  8.00000000E-01
  8.00000000E-01  1.50000000E+00  8.00000000E-01  8.00000000E-01  1.50000000E+00
  8.00000000E-01  8.00000000E-01  1.50000000E+00  8.00000000E-01  8.00000000E-01
  1.50000000E+00  8.00000000E-01  8.00000000E-01  1.50000000E+00  8.00000000E-01
  8.00000000E-01  1.50000000E+00  8.00000000E-01  8.00000000E-01  1.50000000E+00
  8.00000000E-01  8.00000000E-01  1.50000000E+00  8.00000000E-01  8.00000000E-01
  1.50000000E+00  8.00000000E-01  8.00000000E-01  1.50000000E+00  8.00000000E-01
  8.00000000E-01  1.50000000E+00  8.00000000E-01  8.00000000E-01  1.50000000E+00
  8.00000000E-01  8.00000000E-01  1.50000000E+00  8.00000000E-01  8.00000000E-01
  1.50000000E+00  8.00000000E-01  8.00000000E-01  1.50000000E+00  8.00000000E-01
  8.00000000E-01  1.50000000E+00  8.00000000E-01  8.00000000E-01  1.50000000E+00
  8.00000000E-01  8.00000000E-01  1.50000000E+00  8.00000000E-01  8.00000000E-01
  1.50000000E+00  8.00000000E-01  8.00000000E-01  1.50000000E+00  8.00000000E-01
  8.00000000E-01  1.50000000E+00  8.00000000E-01  8.00000000E-01  1.50000000E+00
  8.00000000E-01  8.00000000E-01  1.50000000E+00  8.00000000E-01  8.00000000E-01
  1.50000000E+00  8.00000000E-01  8.00000000E-01  1.50000000E+00  8.00000000E-01
  8.00000000E-01  1.50000000E+00  8.00000000E-01  8.00000000E-01  1.50000000E+00
  8.00000000E-01  8.00000000E-01  1.50000000E+00  8.00000000E-01  8.00000000E-01
  1.50000000E+00  8.00000000E-01  8.00000000E-01  1.50000000E+00  8.00000000E-01
  8.00000000E-01  1.50000000E+00  8.00000000E-01  8.00000000E-01  1.50000000E+00
  8.00000000E-01  8.00000000E-01  1.50000000E+00  8.00000000E-01  8.00000000E-01
  1.50000000E+00  8.00000000E-01  8.00000000E-01  1.50000000E+00  8.00000000E-01
  8.00000000E-01  1.50000000E+00  8.00000000E-01  8.00000000E-01  1.50000000E+00
  8.00000000E-01  8.00000000E-01  1.50000000E+00  8.00000000E-01  8.00000000E-01
  1.50000000E+00  8.00000000E-01  8.00000000E-01  1.50000000E+00  8.00000000E-01
  8.00000000E-01  1.50000000E+00  8.00000000E-01  8.00000000E-01  1.50000000E+00
  8.00000000E-01  8.00000000E-01  1.50000000E+00  8.00000000E-01  8.00000000E-01
  1.50000000E+00  8.00000000E-01  8.00000000E-01  1.50000000E+00  8.00000000E-01
  8.00000000E-01  1.50000000E+00  8.00000000E-01  8.00000000E-01  1.50000000E+00
  8.00000000E-01  8.00000000E-01  1.50000000E+00  8.00000000E-01  8.00000000E-01
  1.50000000E+00  8.00000000E-01  8.00000000E-01  1.50000000E+00  8.00000000E-01
  8.00000000E-01  1.50000000E+00  8.00000000E-01  8.00000000E-01  1.50000000E+00
  8.00000000E-01  8.00000000E-01  1.50000000E+00  8.00000000E-01  8.00000000E-01
  1.50000000E+00  8.00000000E-01  8.00000000E-01  1.50000000E+00  8.00000000E-01
  8.00000000E-01  1.50000000E+00  8.00000000E-01  8.00000000E-01  1.50000000E+00
  8.00000000E-01  8.00000000E-01  1.50000000E+00  8.00000000E-01  8.00000000E-01
  1.50000000E+00  8.00000000E-01  8.00000000E-01  1.50000000E+00  8.00000000E-01
  8.00000000E-01  1.50000000E+00  8.00000000E-01  8.00000000E-01  1.50000000E+00
  8.00000000E-01  8.00000000E-01  1.50000000E+00  8.00000000E-01  8.00000000E-01
  1.50000000E+00  8.00000000E-01  8.00000000E-01  1.50000000E+00  8.00000000E-01
  8.00000000E-01  1.50000000E+00  8.00000000E-01  8.00000000E-01  1.50000000E+00
  8.00000000E-01  8.00000000E-01  1.50000000E+00  8.00000000E-01  8.00000000E-01
  1.50000000E+00  8.00000000E-01  8.00000000E-01  1.50000000E+00  8.00000000E-01
  8.00000000E-01  1.50000000E+00  8.00000000E-01  8.00000000E-01  1.50000000E+00
  8.00000000E-01  8.00000000E-01  1.50000000E+00  8.00000000E-01  8.00000000E-01
  1.50000000E+00  8.00000000E-01  8.00000000E-01  1.50000000E+00  8.00000000E-01
  8.00000000E-01  1.50000000E+00  8.00000000E-01  8.00000000E-01  1.50000000E+00
  8.00000000E-01  8.00000000E-01  1.50000000E+00  8.00000000E-01  8.00000000E-01
  1.50000000E+00  8.00000000E-01  8.00000000E-01  1.50000000E+00  8.00000000E-01
  8.00000000E-01  1.50000000E+00  8.00000000E-01  8.00000000E-01  1.50000000E+00
  8.00000000E-01  8.00000000E-01  1.50000000E+00  8.00000000E-01  8.00000000E-01
  1.50000000E+00  8.00000000E-01  8.00000000E-01  1.50000000E+00  8.00000000E-01
  8.00000000E-01  1.50000000E+00  8.00000000E-01  8.00000000E-01  1.50000000E+00
  8.00000000E-01  8.00000000E-01  1.50000000E+00  8.00000000E-01  8.00000000E-01
  1.50000000E+00  8.00000000E-01  8.00000000E-01  1.50000000E+00  8.00000000E-01
  8.00000000E-01  1.50000000E+00  8.00000000E-01  8.00000000E-01  1.50000000E+00
  8.00000000E-01  8.00000000E-01  1.50000000E+00  8.00000000E-01  8.00000000E-01
  1.50000000E+00  8.00000000E-01  8.00000000E-01  1.50000000E+00  8.00000000E-01
  8.00000000E-01  1.50000000E+00  8.00000000E-01  8.00000000E-01  1.50000000E+00
  8.00000000E-01  8.00000000E-01  1.50000000E+00  8.00000000E-01  8.00000000E-01
  1.50000000E+00  8.00000000E-01  8.00000000E-01  1.50000000E+00  8.00000000E-01
  8.00000000E-01  1.50000000E+00  8.00000000E-01  8.00000000E-01  1.50000000E+00
  8.00000000E-01  8.00000000E-01  1.50000000E+00  8.00000000E-01  8.00000000E-01
  1.50000000E+00  8.00000000E-01  8.00000000E-01  1.50000000E+00  8.00000000E-01
  8.00000000E-01  1.50000000E+00  8.00000000E-01  8.00000000E-01  1.50000000E+00
  8.00000000E-01  8.00000000E-01  1.50000000E+00  8.00000000E-01  8.00000000E-01
  1.50000000E+00  8.00000000E-01  8.00000000E-01  1.50000000E+00  8.00000000E-01
  8.00000000E-01  1.50000000E+00  8.00000000E-01  8.00000000E-01  1.50000000E+00
  8.00000000E-01  8.00000000E-01  1.50000000E+00  8.00000000E-01  8.00000000E-01
  1.50000000E+00  8.00000000E-01  8.00000000E-01  1.50000000E+00  8.00000000E-01
  8.00000000E-01  1.50000000E+00  8.00000000E-01  8.00000000E-01  1.50000000E+00
  8.00000000E-01  8.00000000E-01  1.50000000E+00  8.00000000E-01  8.00000000E-01
  1.50000000E+00  8.00000000E-01  8.00000000E-01  1.50000000E+00  8.00000000E-01
  8.00000000E-01  1.50000000E+00  8.00000000E-01  8.00000000E-01  1.50000000E+00
  8.00000000E-01  8.00000000E-01  1.50000000E+00  8.00000000E-01  8.00000000E-01
  1.50000000E+00  8.00000000E-01  8.00000000E-01  1.50000000E+00  8.00000000E-01
  8.00000000E-01  1.50000000E+00  8.00000000E-01  8.00000000E-01  1.50000000E+00
  8.00000000E-01  8.00000000E-01  1.50000000E+00  8.00000000E-01  8.00000000E-01
  1.50000000E+00  8.00000000E-01  8.00000000E-01  1.50000000E+00  8.00000000E-01
  8.00000000E-01  1.50000000E+00  8.00000000E-01  8.00000000E-01  1.50000000E+00
  8.00000000E-01  8.00000000E-01  1.50000000E+00  8.00000000E-01  8.00000000E-01
  1.50000000E+00  8.00000000E-01  8.00000000E-01  1.50000000E+00  8.00000000E-01
  8.00000000E-01  1.50000000E+00  8.00000000E-01  8.00000000E-01  1.50000000E+00
  8.00000000E-01  8.00000000E-01  1.50000000E+00  8.00000000E-01  8.00000000E-01
  1.50000000E+00  8.00000000E-01  8.00000000E-01  1.50000000E+00  8.00000000E-01
  8.00000000E-01  1.50000000E+00  8.00000000E-01  8.00000000E-01  1.50000000E+00
  8.00000000E-01  8.00000000E-01  1.50000000E+00  8.00000000E-01  8.00000000E-01
  1.50000000E+00  8.00000000E-01  8.00000000E-01  1.50000000E+00  8.00000000E-01
  8.00000000E-01  1.50000000E+00  8.00000000E-01  8.00000000E-01  1.50000000E+00
  8.00000000E-01  8.00000000E-01  1.50000000E+00  8.00000000E-01  8.00000000E-01
  1.50000000E+00  8.00000000E-01  8.00000000E-01  1.50000000E+00  8.00000000E-01
  8.00000000E-01  1.50000000E+00  8.00000000E-01  8.00000000E-01  1.50000000E+00
  8.00000000E-01  8.00000000E-01  1.50000000E+00  8.00000000E-01  8.00000000E-01
  1.50000000E+00  8.00000000E-01  8.00000000E-01  1.50000000E+00  8.00000000E-01
  8.00000000E-01  1.50000000E+00  8.00000000E-01  8.00000000E-01  1.50000000E+00
  8.00000000E-01  8.00000000E-01  1.50000000E+00  8.00000000E-01  8.00000000E-01
  1.50000000E+00  8.00000000E-01  8.00000000E-01  1.50000000E+00  8.00000000E-01
  8.00000000E-01  1.50000000E+00  8.00000000E-01  8.00000000E-01  1.50000000E+00
  8.00000000E-01  8.00000000E-01  1.50000000E+00  8.00000000E-01  8.00000000E-01
  1.50000000E+00  8.00000000E-01  8.00000000E-01  1.50000000E+00  8.00000000E-01
  8.00000000E-01  1.50000000E+00  8.00000000E-01  8.00000000E-01  1.50000000E+00
  8.00000000E-01  8.00000000E-01  1.50000000E+00  8.00000000E-01  8.00000000E-01
  1.50000000E+00  8.00000000E-01  8.00000000E-01  1.50000000E+00  8.00000000E-01
  8.00000000E-01  1.50000000E+00  8.00000000E-01  8.00000000E-01  1.50000000E+00
  8.00000000E-01  8.00000000E-01  1.50000000E+00  8.00000000E-01  8.00000000E-01
  1.50000000E+00  8.00000000E-01  8.00000000E-01  1.50000000E+00  8.00000000E-01
  8.00000000E-01  1.50000000E+00  8.00000000E-01  8.00000000E-01  1.50000000E+00
  8.00000000E-01  8.00000000E-01  1.50000000E+00  8.00000000E-01  8.00000000E-01
  1.50000000E+00  8.00000000E-01  8.00000000E-01  1.50000000E+00  8.00000000E-01
  8.00000000E-01  1.50000000E+00  8.00000000E-01  8.00000000E-01  1.50000000E+00
  8.00000000E-01  8.00000000E-01  1.50000000E+00  8.00000000E-01  8.00000000E-01
  1.50000000E+00  8.00000000E-01  8.00000000E-01  1.50000000E+00  8.00000000E-01
  8.00000000E-01  1.50000000E+00  8.00000000E-01  8.00000000E-01  1.50000000E+00
  8.00000000E-01  8.00000000E-01  1.50000000E+00  8.00000000E-01  8.00000000E-01
  1.50000000E+00  8.00000000E-01  8.00000000E-01  1.50000000E+00  8.00000000E-01
  8.00000000E-01  1.50000000E+00  8.00000000E-01  8.00000000E-01  1.50000000E+00
  8.00000000E-01  8.00000000E-01  1.50000000E+00  8.00000000E-01  8.00000000E-01
  1.50000000E+00  8.00000000E-01  8.00000000E-01  1.50000000E+00  8.00000000E-01
  8.00000000E-01  1.50000000E+00  8.00000000E-01  8.00000000E-01  1.50000000E+00
  8.00000000E-01  8.00000000E-01  1.50000000E+00  8.00000000E-01  8.00000000E-01
  1.50000000E+00  8.00000000E-01  8.00000000E-01  1.50000000E+00  8.00000000E-01
  8.00000000E-01  1.50000000E+00  8.00000000E-01  8.00000000E-01  1.50000000E+00
  8.00000000E-01  8.00000000E-01  1.50000000E+00  8.00000000E-01  8.00000000E-01
  1.50000000E+00  8.00000000E-01  8.00000000E-01  1.50000000E+00  8.00000000E-01
  8.00000000E-01  1.50000000E+00  8.00000000E-01  8.00000000E-01  1.50000000E+00
  8.00000000E-01  8.00000000E-01  1.50000000E+00  8.00000000E-01  8.00000000E-01
  1.50000000E+00  8.00000000E-01  8.00000000E-01  1.50000000E+00  8.00000000E-01
  8.00000000E-01  1.50000000E+00  8.00000000E-01  8.00000000E-01  1.50000000E+00
  8.00000000E-01  8.00000000E-01  1.50000000E+00  8.00000000E-01  8.00000000E-01
  1.50000000E+00  8.00000000E-01  8.00000000E-01  1.50000000E+00  8.00000000E-01
  8.00000000E-01  1.50000000E+00  8.00000000E-01  8.00000000E-01  1.50000000E+00
  8.00000000E-01  8.00000000E-01  1.50000000E+00  8.00000000E-01  8.00000000E-01
  1.50000000E+00  8.00000000E-01  8.00000000E-01  1.50000000E+00  8.00000000E-01
  8.00000000E-01  1.50000000E+00  8.00000000E-01  8.00000000E-01  1.50000000E+00
  8.00000000E-01  8.00000000E-01  1.50000000E+00  8.00000000E-01  8.00000000E-01
  1.50000000E+00  8.00000000E-01  8.00000000E-01  1.50000000E+00  8.00000000E-01
  8.00000000E-01  1.50000000E+00  8.00000000E-01  8.00000000E-01  1.50000000E+00
  8.00000000E-01  8.00000000E-01  1.50000000E+00  8.00000000E-01  8.00000000E-01
  1.50000000E+00  8.00000000E-01  8.00000000E-01  1.50000000E+00  8.00000000E-01
  8.00000000E-01  1.50000000E+00  8.00000000E-01  8.00000000E-01  1.50000000E+00
  8.00000000E-01  8.00000000E-01  1.50000000E+00  8.00000000E-01  8.00000000E-01
  1.50000000E+00  8.00000000E-01  8.00000000E-01  1.50000000E+00  8.00000000E-01
  8.00000000E-01  1.50000000E+00  8.00000000E-01  8.00000000E-01  1.50000000E+00
  8.00000000E-01  8.00000000E-01  1.50000000E+00  8.00000000E-01  8.00000000E-01
  1.50000000E+00  8.00000000E-01  8.00000000E-01  1.50000000E+00  8.00000000E-01
  8.00000000E-01  1.50000000E+00  8.00000000E-01  8.00000000E-01  1.50000000E+00
  8.00000000E-01  8.00000000E-01  1.50000000E+00  8.00000000E-01  8.00000000E-01
  1.50000000E+00  8.00000000E-01  8.00000000E-01  1.50000000E+00  8.00000000E-01
  8.00000000E-01  1.50000000E+00  8.00000000E-01  8.00000000E-01  1.50000000E+00
  8.00000000E-01  8.00000000E-01  1.50000000E+00  8.00000000E-01  8.00000000E-01
  1.50000000E+00  8.00000000E-01  8.00000000E-01  1.50000000E+00  8.00000000E-01
  8.00000000E-01  1.50000000E+00  8.00000000E-01  8.00000000E-01  1.50000000E+00
  8.00000000E-01  8.00000000E-01  1.50000000E+00  8.00000000E-01  8.00000000E-01
  1.50000000E+00  8.00000000E-01  8.00000000E-01  1.50000000E+00  8.00000000E-01
  8.00000000E-01  1.50000000E+00  8.00000000E-01  8.00000000E-01  1.50000000E+00
  8.00000000E-01  8.00000000E-01  1.50000000E+00  8.00000000E-01  8.00000000E-01
  1.50000000E+00  8.00000000E-01  8.00000000E-01  1.50000000E+00  8.00000000E-01
  8.00000000E-01  1.50000000E+00  8.00000000E-01  8.00000000E-01  1.50000000E+00
  8.00000000E-01  8.00000000E-01  1.50000000E+00  8.00000000E-01  8.00000000E-01
  1.50000000E+00  8.00000000E-01  8.00000000E-01  1.50000000E+00  8.00000000E-01
  8.00000000E-01  1.50000000E+00  8.00000000E-01  8.00000000E-01  1.50000000E+00
  8.00000000E-01  8.00000000E-01  1.50000000E+00  8.00000000E-01  8.00000000E-01
  1.50000000E+00  8.00000000E-01  8.00000000E-01  1.50000000E+00  8.00000000E-01
  8.00000000E-01  1.50000000E+00  8.00000000E-01  8.00000000E-01  1.50000000E+00
  8.00000000E-01  8.00000000E-01  1.50000000E+00  8.00000000E-01  8.00000000E-01
  1.50000000E+00  8.00000000E-01  8.00000000E-01  1.50000000E+00  8.00000000E-01
  8.00000000E-01  1.50000000E+00  8.00000000E-01  8.00000000E-01  1.50000000E+00
  8.00000000E-01  8.00000000E-01  1.50000000E+00  8.00000000E-01  8.00000000E-01
  1.50000000E+00  8.00000000E-01  8.00000000E-01  1.50000000E+00  8.00000000E-01
  8.00000000E-01  1.50000000E+00  8.00000000E-01  8.00000000E-01  1.50000000E+00
  8.00000000E-01  8.00000000E-01  1.50000000E+00  8.00000000E-01  8.00000000E-01
  1.50000000E+00  8.00000000E-01  8.00000000E-01  1.50000000E+00  8.00000000E-01
  8.00000000E-01  1.50000000E+00  8.00000000E-01  8.00000000E-01  1.50000000E+00
  8.00000000E-01  8.00000000E-01  1.50000000E+00  8.00000000E-01  8.00000000E-01
  1.50000000E+00  8.00000000E-01  8.00000000E-01  1.50000000E+00  8.00000000E-01
  8.00000000E-01  1.50000000E+00  8.00000000E-01  8.00000000E-01  1.50000000E+00
  8.00000000E-01  8.00000000E-01  1.50000000E+00  8.00000000E-01  8.00000000E-01
  1.50000000E+00  8.00000000E-01  8.00000000E-01  1.50000000E+00  8.00000000E-01
  8.00000000E-01  1.50000000E+00  8.00000000E-01  8.00000000E-01  1.50000000E+00
  8.00000000E-01  8.00000000E-01  1.50000000E+00  8.00000000E-01  8.00000000E-01
  1.50000000E+00  8.00000000E-01  8.00000000E-01  1.50000000E+00  8.00000000E-01
  8.00000000E-01  1.50000000E+00  8.00000000E-01  8.00000000E-01  1.50000000E+00
  8.00000000E-01  8.00000000E-01  1.50000000E+00  8.00000000E-01  8.00000000E-01
  1.50000000E+00  8.00000000E-01  8.00000000E-01  1.50000000E+00  8.00000000E-01
  8.00000000E-01  1.50000000E+00  8.00000000E-01  8.00000000E-01  1.50000000E+00
  8.00000000E-01  8.00000000E-01  1.50000000E+00  8.00000000E-01  8.00000000E-01
  1.50000000E+00  8.00000000E-01  8.00000000E-01  1.50000000E+00  8.00000000E-01
  8.00000000E-01  1.50000000E+00  8.00000000E-01  8.00000000E-01  1.50000000E+00
  8.00000000E-01  8.00000000E-01  1.50000000E+00  8.00000000E-01  8.00000000E-01
  1.50000000E+00  8.00000000E-01  8.00000000E-01  1.50000000E+00  8.00000000E-01
  8.00000000E-01  1.50000000E+00  8.00000000E-01  8.00000000E-01  1.50000000E+00
  8.00000000E-01  8.00000000E-01  1.50000000E+00  8.00000000E-01  8.00000000E-01
  1.50000000E+00  8.00000000E-01  8.00000000E-01  1.50000000E+00  8.00000000E-01
  8.00000000E-01  1.50000000E+00  8.00000000E-01  8.00000000E-01  1.50000000E+00
  8.00000000E-01  8.00000000E-01  1.50000000E+00  8.00000000E-01  8.00000000E-01
  1.50000000E+00  8.00000000E-01  8.00000000E-01  1.50000000E+00  8.00000000E-01
  8.00000000E-01  1.50000000E+00  8.00000000E-01  8.00000000E-01  1.50000000E+00
  8.00000000E-01  8.00000000E-01  1.50000000E+00  8.00000000E-01  8.00000000E-01
  1.50000000E+00  8.00000000E-01  8.00000000E-01  1.50000000E+00  8.00000000E-01
  8.00000000E-01  1.50000000E+00  8.00000000E-01  8.00000000E-01  1.50000000E+00
  8.00000000E-01  8.00000000E-01  1.50000000E+00  8.00000000E-01  8.00000000E-01
  1.50000000E+00  8.00000000E-01  8.00000000E-01  1.50000000E+00  8.00000000E-01
  8.00000000E-01  1.50000000E+00  8.00000000E-01  8.00000000E-01  1.50000000E+00
  8.00000000E-01  8.00000000E-01  1.50000000E+00  8.00000000E-01  8.00000000E-01
  1.50000000E+00  8.00000000E-01  8.00000000E-01  1.50000000E+00  8.00000000E-01
  8.00000000E-01  1.50000000E+00  8.00000000E-01  8.00000000E-01  1.50000000E+00
  8.00000000E-01  8.00000000E-01  1.50000000E+00  8.00000000E-01  8.00000000E-01
  1.50000000E+00  8.00000000E-01  8.00000000E-01  1.50000000E+00  8.00000000E-01
  8.00000000E-01  1.50000000E+00  8.00000000E-01  8.00000000E-01  1.50000000E+00
  8.00000000E-01  8.00000000E-01  1.50000000E+00  8.00000000E-01  8.00000000E-01
  1.50000000E+00  8.00000000E-01  8.00000000E-01  1.50000000E+00  8.00000000E-01
  8.00000000E-01  1.50000000E+00  8.00000000E-01  8.00000000E-01  1.50000000E+00
  8.00000000E-01  8.00000000E-01  1.50000000E+00  8.00000000E-01  8.00000000E-01
  1.50000000E+00  8.00000000E-01  8.00000000E-01  1.50000000E+00  8.00000000E-01
  8.00000000E-01  1.50000000E+00  8.00000000E-01  8.00000000E-01  1.50000000E+00
  8.00000000E-01  8.00000000E-01  1.50000000E+00  8.00000000E-01  8.00000000E-01
  1.50000000E+00  8.00000000E-01  8.00000000E-01  1.50000000E+00  8.00000000E-01
  8.00000000E-01  1.50000000E+00  8.00000000E-01  8.00000000E-01  1.50000000E+00
  8.00000000E-01  8.00000000E-01  1.50000000E+00  8.00000000E-01  8.00000000E-01
  1.50000000E+00  8.00000000E-01  8.00000000E-01  1.50000000E+00  8.00000000E-01
  8.00000000E-01  1.50000000E+00  8.00000000E-01  8.00000000E-01  1.50000000E+00
  8.00000000E-01  8.00000000E-01  1.50000000E+00  8.00000000E-01  8.00000000E-01
  1.50000000E+00  8.00000000E-01  8.00000000E-01  1.50000000E+00  8.00000000E-01
  8.00000000E-01  1.50000000E+00  8.00000000E-01  8.00000000E-01  1.50000000E+00
  8.00000000E-01  8.00000000E-01  1.50000000E+00  8.00000000E-01  8.00000000E-01
  1.50000000E+00  8.00000000E-01  8.00000000E-01  1.50000000E+00  8.00000000E-01
  8.00000000E-01  1.50000000E+00  8.00000000E-01  8.00000000E-01  1.50000000E+00
  8.00000000E-01  8.00000000E-01  1.50000000E+00  8.00000000E-01  8.00000000E-01
  1.50000000E+00  8.00000000E-01  8.00000000E-01  1.50000000E+00  8.00000000E-01
  8.00000000E-01  1.50000000E+00  8.00000000E-01  8.00000000E-01  1.50000000E+00
  8.00000000E-01  8.00000000E-01  1.50000000E+00  8.00000000E-01  8.00000000E-01
  1.50000000E+00  8.00000000E-01  8.00000000E-01  1.50000000E+00  8.00000000E-01
  8.00000000E-01  1.50000000E+00  8.00000000E-01  8.00000000E-01  1.50000000E+00
  8.00000000E-01  8.00000000E-01  1.50000000E+00  8.00000000E-01  8.00000000E-01
  1.50000000E+00  8.00000000E-01  8.00000000E-01  1.50000000E+00  8.00000000E-01
  8.00000000E-01  1.50000000E+00  8.00000000E-01  8.00000000E-01  1.50000000E+00
  8.00000000E-01  8.00000000E-01  1.50000000E+00  8.00000000E-01  8.00000000E-01
  1.50000000E+00  8.00000000E-01  8.00000000E-01  1.50000000E+00  8.00000000E-01
  8.00000000E-01  1.50000000E+00  8.00000000E-01  8.00000000E-01  1.50000000E+00
  8.00000000E-01  8.00000000E-01  1.50000000E+00  8.00000000E-01  8.00000000E-01
  1.50000000E+00  8.00000000E-01  8.00000000E-01  1.50000000E+00  8.00000000E-01
  8.00000000E-01  1.50000000E+00  8.00000000E-01  8.00000000E-01  1.50000000E+00
  8.00000000E-01  8.00000000E-01  1.50000000E+00  8.00000000E-01  8.00000000E-01
  1.50000000E+00  8.00000000E-01  8.00000000E-01  1.50000000E+00  8.00000000E-01
  8.00000000E-01  1.50000000E+00  8.00000000E-01  8.00000000E-01  1.50000000E+00
  8.00000000E-01  8.00000000E-01  1.50000000E+00  8.00000000E-01  8.00000000E-01
  1.50000000E+00  8.00000000E-01  8.00000000E-01  1.50000000E+00  8.00000000E-01
  8.00000000E-01  1.50000000E+00  8.00000000E-01  8.00000000E-01  1.50000000E+00
  8.00000000E-01  8.00000000E-01  1.50000000E+00  8.00000000E-01  8.00000000E-01
  1.50000000E+00  8.00000000E-01  8.00000000E-01  1.50000000E+00  8.00000000E-01
  8.00000000E-01  1.50000000E+00  8.00000000E-01  8.00000000E-01  1.50000000E+00
  8.00000000E-01  8.00000000E-01  1.50000000E+00  8.00000000E-01  8.00000000E-01
  1.50000000E+00  8.00000000E-01  8.00000000E-01  1.50000000E+00  8.00000000E-01
  8.00000000E-01  1.50000000E+00  8.00000000E-01  8.00000000E-01  1.50000000E+00
  8.00000000E-01  8.00000000E-01  1.50000000E+00  8.00000000E-01  8.00000000E-01
  1.50000000E+00  8.00000000E-01  8.00000000E-01  1.50000000E+00  8.00000000E-01
  8.00000000E-01  1.50000000E+00  8.00000000E-01  8.00000000E-01  1.50000000E+00
  8.00000000E-01  8.00000000E-01  1.50000000E+00  8.00000000E-01  8.00000000E-01
  1.50000000E+00  8.00000000E-01  8.00000000E-01  1.50000000E+00  8.00000000E-01
  8.00000000E-01  1.50000000E+00  8.00000000E-01  8.00000000E-01  1.50000000E+00
  8.00000000E-01  8.00000000E-01  1.50000000E+00  8.00000000E-01  8.00000000E-01
  1.50000000E+00  8.00000000E-01  8.00000000E-01  1.50000000E+00  8.00000000E-01
  8.00000000E-01  1.50000000E+00  8.00000000E-01  8.00000000E-01  1.50000000E+00
  8.00000000E-01  8.00000000E-01  1.50000000E+00  8.00000000E-01  8.00000000E-01
  1.50000000E+00  8.00000000E-01  8.00000000E-01  1.50000000E+00  8.00000000E-01
  8.00000000E-01  1.50000000E+00  8.00000000E-01  8.00000000E-01  1.50000000E+00
  8.00000000E-01  8.00000000E-01  1.50000000E+00  8.00000000E-01  8.00000000E-01
  1.50000000E+00  8.00000000E-01  8.00000000E-01  1.50000000E+00  8.00000000E-01
  8.00000000E-01  1.50000000E+00  8.00000000E-01  8.00000000E-01  1.50000000E+00
  8.00000000E-01  8.00000000E-01  1.50000000E+00  8.00000000E-01  8.00000000E-01
  1.50000000E+00  8.00000000E-01  8.00000000E-01  1.50000000E+00  8.00000000E-01
  8.00000000E-01  1.50000000E+00  8.00000000E-01  8.00000000E-01  1.50000000E+00
  8.00000000E-01  8.00000000E-01  1.50000000E+00  8.00000000E-01  8.00000000E-01
  1.50000000E+00  8.00000000E-01  8.00000000E-01  1.50000000E+00  8.00000000E-01
  8.00000000E-01  1.50000000E+00  8.00000000E-01  8.00000000E-01  1.50000000E+00
  8.00000000E-01  8.00000000E-01  1.50000000E+00  8.00000000E-01  8.00000000E-01
  1.50000000E+00  8.00000000E-01  8.00000000E-01  1.50000000E+00  8.00000000E-01
  8.00000000E-01  1.50000000E+00  8.00000000E-01  8.00000000E-01  1.50000000E+00
  8.00000000E-01  8.00000000E-01  1.50000000E+00  8.00000000E-01  8.00000000E-01
  1.50000000E+00  8.00000000E-01  8.00000000E-01  1.50000000E+00  8.00000000E-01
  8.00000000E-01  1.50000000E+00  8.00000000E-01  8.00000000E-01  1.50000000E+00
  8.00000000E-01  8.00000000E-01  1.50000000E+00  8.00000000E-01  8.00000000E-01
  1.50000000E+00  8.00000000E-01  8.00000000E-01  1.50000000E+00  8.00000000E-01
  8.00000000E-01  1.50000000E+00  8.00000000E-01  8.00000000E-01  1.50000000E+00
  8.00000000E-01  8.00000000E-01  1.50000000E+00  8.00000000E-01  8.00000000E-01
  1.50000000E+00  8.00000000E-01  8.00000000E-01  1.50000000E+00  8.00000000E-01
  8.00000000E-01  1.50000000E+00  8.00000000E-01  8.00000000E-01  1.50000000E+00
  8.00000000E-01  8.00000000E-01  1.50000000E+00  8.00000000E-01  8.00000000E-01
  1.50000000E+00  8.00000000E-01  8.00000000E-01  1.50000000E+00  8.00000000E-01
  8.00000000E-01  1.50000000E+00  8.00000000E-01  8.00000000E-01  1.50000000E+00
  8.00000000E-01  8.00000000E-01  1.50000000E+00  8.00000000E-01  8.00000000E-01
  1.50000000E+00  8.00000000E-01  8.00000000E-01  1.50000000E+00  8.00000000E-01
  8.00000000E-01  1.50000000E+00  8.00000000E-01  8.00000000E-01  1.50000000E+00
  8.00000000E-01  8.00000000E-01  1.50000000E+00  8.00000000E-01  8.00000000E-01
  1.50000000E+00  8.00000000E-01  8.00000000E-01  1.50000000E+00  8.00000000E-01
  8.00000000E-01  1.50000000E+00  8.00000000E-01  8.00000000E-01  1.50000000E+00
  8.00000000E-01  8.00000000E-01  1.50000000E+00  8.00000000E-01  8.00000000E-01
  1.50000000E+00  8.00000000E-01  8.00000000E-01  1.50000000E+00  8.00000000E-01
  8.00000000E-01  1.50000000E+00  8.00000000E-01  8.00000000E-01  1.50000000E+00
  8.00000000E-01  8.00000000E-01  1.50000000E+00  8.00000000E-01  8.00000000E-01
  1.50000000E+00  8.00000000E-01  8.00000000E-01  1.50000000E+00  8.00000000E-01
  8.00000000E-01  1.50000000E+00  8.00000000E-01  8.00000000E-01  1.50000000E+00
  8.00000000E-01  8.00000000E-01  1.50000000E+00  8.00000000E-01  8.00000000E-01
  1.50000000E+00  8.00000000E-01  8.00000000E-01  1.50000000E+00  8.00000000E-01
  8.00000000E-01  1.50000000E+00  8.00000000E-01  8.00000000E-01  1.50000000E+00
  8.00000000E-01  8.00000000E-01  1.50000000E+00  8.00000000E-01  8.00000000E-01
  1.50000000E+00  8.00000000E-01  8.00000000E-01  1.50000000E+00  8.00000000E-01
  8.00000000E-01  1.50000000E+00  8.00000000E-01  8.00000000E-01  1.50000000E+00
  8.00000000E-01  8.00000000E-01  1.50000000E+00  8.00000000E-01  8.00000000E-01
  1.50000000E+00  8.00000000E-01  8.00000000E-01  1.50000000E+00  8.00000000E-01
  8.00000000E-01  1.50000000E+00  8.00000000E-01  8.00000000E-01  1.50000000E+00
  8.00000000E-01  8.00000000E-01  1.50000000E+00  8.00000000E-01  8.00000000E-01
  1.50000000E+00  8.00000000E-01  8.00000000E-01  1.50000000E+00  8.00000000E-01
  8.00000000E-01  1.50000000E+00  8.00000000E-01  8.00000000E-01  1.50000000E+00
  8.00000000E-01  8.00000000E-01  1.50000000E+00  8.00000000E-01  8.00000000E-01
  1.50000000E+00  8.00000000E-01  8.00000000E-01  1.50000000E+00  8.00000000E-01
  8.00000000E-01  1.50000000E+00  8.00000000E-01  8.00000000E-01  1.50000000E+00
  8.00000000E-01  8.00000000E-01  1.50000000E+00  8.00000000E-01  8.00000000E-01
  1.50000000E+00  8.00000000E-01  8.00000000E-01  1.50000000E+00  8.00000000E-01
  8.00000000E-01  1.50000000E+00  8.00000000E-01  8.00000000E-01  1.50000000E+00
  8.00000000E-01  8.00000000E-01  1.50000000E+00  8.00000000E-01  8.00000000E-01
  1.50000000E+00  8.00000000E-01  8.00000000E-01  1.50000000E+00  8.00000000E-01
  8.00000000E-01  1.50000000E+00  8.00000000E-01  8.00000000E-01  1.50000000E+00
  8.00000000E-01  8.00000000E-01  1.50000000E+00  8.00000000E-01  8.00000000E-01
  1.50000000E+00  8.00000000E-01  8.00000000E-01  1.50000000E+00  8.00000000E-01
  8.00000000E-01  1.50000000E+00  8.00000000E-01  8.00000000E-01  1.50000000E+00
  8.00000000E-01  8.00000000E-01  1.50000000E+00  8.00000000E-01  8.00000000E-01
  1.50000000E+00  8.00000000E-01  8.00000000E-01  1.50000000E+00  8.00000000E-01
  8.00000000E-01  1.50000000E+00  8.00000000E-01  8.00000000E-01  1.50000000E+00
  8.00000000E-01  8.00000000E-01  1.50000000E+00  8.00000000E-01  8.00000000E-01
  1.50000000E+00  8.00000000E-01  8.00000000E-01  1.50000000E+00  8.00000000E-01
  8.00000000E-01  1.50000000E+00  8.00000000E-01  8.00000000E-01  1.50000000E+00
  8.00000000E-01  8.00000000E-01  1.50000000E+00  8.00000000E-01  8.00000000E-01
  1.50000000E+00  8.00000000E-01  8.00000000E-01  1.50000000E+00  8.00000000E-01
  8.00000000E-01  1.50000000E+00  8.00000000E-01  8.00000000E-01  1.50000000E+00
  8.00000000E-01  8.00000000E-01  1.50000000E+00  8.00000000E-01  8.00000000E-01
  1.50000000E+00  8.00000000E-01  8.00000000E-01  1.50000000E+00  8.00000000E-01
  8.00000000E-01  1.50000000E+00  8.00000000E-01  8.00000000E-01  1.50000000E+00
  8.00000000E-01  8.00000000E-01  1.50000000E+00  8.00000000E-01  8.00000000E-01
  1.50000000E+00  8.00000000E-01  8.00000000E-01  1.50000000E+00  8.00000000E-01
  8.00000000E-01  1.50000000E+00  8.00000000E-01  8.00000000E-01  1.50000000E+00
  8.00000000E-01  8.00000000E-01  1.50000000E+00  8.00000000E-01  8.00000000E-01
  1.50000000E+00  8.00000000E-01  8.00000000E-01  1.50000000E+00  8.00000000E-01
  8.00000000E-01  1.50000000E+00  8.00000000E-01  8.00000000E-01  1.50000000E+00
  8.00000000E-01  8.00000000E-01  1.50000000E+00  8.00000000E-01  8.00000000E-01
  1.50000000E+00  8.00000000E-01  8.00000000E-01  1.50000000E+00  8.00000000E-01
  8.00000000E-01  1.50000000E+00  8.00000000E-01  8.00000000E-01  1.50000000E+00
  8.00000000E-01  8.00000000E-01  1.50000000E+00  8.00000000E-01  8.00000000E-01
  1.50000000E+00  8.00000000E-01  8.00000000E-01  1.50000000E+00  8.00000000E-01
  8.00000000E-01  1.50000000E+00  8.00000000E-01  8.00000000E-01  1.50000000E+00
  8.00000000E-01  8.00000000E-01  1.50000000E+00  8.00000000E-01  8.00000000E-01
  1.50000000E+00  8.00000000E-01  8.00000000E-01  1.50000000E+00  8.00000000E-01
  8.00000000E-01  1.50000000E+00  8.00000000E-01  8.00000000E-01  1.50000000E+00
  8.00000000E-01  8.00000000E-01  1.50000000E+00  8.00000000E-01  8.00000000E-01
  1.50000000E+00  8.00000000E-01  8.00000000E-01  1.50000000E+00  8.00000000E-01
  8.00000000E-01  1.50000000E+00  8.00000000E-01  8.00000000E-01  1.50000000E+00
  8.00000000E-01  8.00000000E-01  1.50000000E+00  8.00000000E-01  8.00000000E-01
  1.50000000E+00  8.00000000E-01  8.00000000E-01  1.50000000E+00  8.00000000E-01
  8.00000000E-01  1.50000000E+00  8.00000000E-01  8.00000000E-01  1.50000000E+00
  8.00000000E-01  8.00000000E-01  1.50000000E+00  8.00000000E-01  8.00000000E-01
  1.50000000E+00  8.00000000E-01  8.00000000E-01  1.50000000E+00  8.00000000E-01
  8.00000000E-01  1.50000000E+00  8.00000000E-01  8.00000000E-01  1.50000000E+00
  8.00000000E-01  8.00000000E-01  1.50000000E+00  8.00000000E-01  8.00000000E-01
  1.50000000E+00  8.00000000E-01  8.00000000E-01  1.50000000E+00  8.00000000E-01
  8.00000000E-01  1.50000000E+00  8.00000000E-01  8.00000000E-01  1.50000000E+00
  8.00000000E-01  8.00000000E-01  1.50000000E+00  8.00000000E-01  8.00000000E-01
  1.50000000E+00  8.00000000E-01  8.00000000E-01  1.50000000E+00  8.00000000E-01
  8.00000000E-01  1.50000000E+00  8.00000000E-01  8.00000000E-01  1.50000000E+00
  8.00000000E-01  8.00000000E-01  1.50000000E+00  8.00000000E-01  8.00000000E-01
  1.50000000E+00  8.00000000E-01  8.00000000E-01  1.50000000E+00  8.00000000E-01
  8.00000000E-01  1.50000000E+00  8.00000000E-01  8.00000000E-01  1.50000000E+00
  8.00000000E-01  8.00000000E-01  1.50000000E+00  8.00000000E-01  8.00000000E-01
  1.50000000E+00  8.00000000E-01  8.00000000E-01  1.50000000E+00  8.00000000E-01
  8.00000000E-01  1.50000000E+00  8.00000000E-01  8.00000000E-01  1.50000000E+00
  8.00000000E-01  8.00000000E-01  1.50000000E+00  8.00000000E-01  8.00000000E-01
  1.50000000E+00  8.00000000E-01  8.00000000E-01  1.50000000E+00  8.00000000E-01
  8.00000000E-01  1.50000000E+00  8.00000000E-01  8.00000000E-01  1.50000000E+00
  8.00000000E-01  8.00000000E-01  1.50000000E+00  8.00000000E-01  8.00000000E-01
  1.50000000E+00  8.00000000E-01  8.00000000E-01  1.50000000E+00  8.00000000E-01
  8.00000000E-01  1.50000000E+00  8.00000000E-01  8.00000000E-01  1.50000000E+00
  8.00000000E-01  8.00000000E-01  1.50000000E+00  8.00000000E-01  8.00000000E-01
  1.50000000E+00  8.00000000E-01  8.00000000E-01  1.50000000E+00  8.00000000E-01
  8.00000000E-01  1.50000000E+00  8.00000000E-01  8.00000000E-01  1.50000000E+00
  8.00000000E-01  8.00000000E-01  1.50000000E+00  8.00000000E-01  8.00000000E-01
  1.50000000E+00  8.00000000E-01  8.00000000E-01  1.50000000E+00  8.00000000E-01
  8.00000000E-01  1.50000000E+00  8.00000000E-01  8.00000000E-01  1.50000000E+00
  8.00000000E-01  8.00000000E-01  1.50000000E+00  8.00000000E-01  8.00000000E-01
  1.50000000E+00  8.00000000E-01  8.00000000E-01  1.50000000E+00  8.00000000E-01
  8.00000000E-01  1.50000000E+00  8.00000000E-01  8.00000000E-01  1.50000000E+00
  8.00000000E-01  8.00000000E-01  1.50000000E+00  8.00000000E-01  8.00000000E-01
  1.50000000E+00  8.00000000E-01  8.00000000E-01  1.50000000E+00  8.00000000E-01
  8.00000000E-01  1.50000000E+00  8.00000000E-01  8.00000000E-01  1.50000000E+00
  8.00000000E-01  8.00000000E-01  1.50000000E+00  8.00000000E-01  8.00000000E-01
  1.50000000E+00  8.00000000E-01  8.00000000E-01  1.50000000E+00  8.00000000E-01
  8.00000000E-01  1.50000000E+00  8.00000000E-01  8.00000000E-01  1.50000000E+00
  8.00000000E-01  8.00000000E-01  1.50000000E+00  8.00000000E-01  8.00000000E-01
  1.50000000E+00  8.00000000E-01  8.00000000E-01  1.50000000E+00  8.00000000E-01
  8.00000000E-01  1.50000000E+00  8.00000000E-01  8.00000000E-01  1.50000000E+00
  8.00000000E-01  8.00000000E-01  1.50000000E+00  8.00000000E-01  8.00000000E-01
  1.50000000E+00  8.00000000E-01  8.00000000E-01  1.50000000E+00  8.00000000E-01
  8.00000000E-01  1.50000000E+00  8.00000000E-01  8.00000000E-01  1.50000000E+00
  8.00000000E-01  8.00000000E-01  1.50000000E+00  8.00000000E-01  8.00000000E-01
  1.50000000E+00  8.00000000E-01  8.00000000E-01  1.50000000E+00  8.00000000E-01
  8.00000000E-01  1.50000000E+00  8.00000000E-01  8.00000000E-01  1.50000000E+00
  8.00000000E-01  8.00000000E-01  1.50000000E+00  8.00000000E-01  8.00000000E-01
  1.50000000E+00  8.00000000E-01  8.00000000E-01  1.50000000E+00  8.00000000E-01
  8.00000000E-01  1.50000000E+00  8.00000000E-01  8.00000000E-01  1.50000000E+00
  8.00000000E-01  8.00000000E-01  1.50000000E+00  8.00000000E-01  8.00000000E-01
  1.50000000E+00  8.00000000E-01  8.00000000E-01  1.50000000E+00  8.00000000E-01
  8.00000000E-01  1.50000000E+00  8.00000000E-01  8.00000000E-01  1.50000000E+00
  8.00000000E-01  8.00000000E-01  1.50000000E+00  8.00000000E-01  8.00000000E-01
  1.50000000E+00  8.00000000E-01  8.00000000E-01  1.50000000E+00  8.00000000E-01
  8.00000000E-01  1.50000000E+00  8.00000000E-01  8.00000000E-01  1.50000000E+00
  8.00000000E-01  8.00000000E-01  1.50000000E+00  8.00000000E-01  8.00000000E-01
  1.50000000E+00  8.00000000E-01  8.00000000E-01  1.50000000E+00  8.00000000E-01
  8.00000000E-01  1.50000000E+00  8.00000000E-01  8.00000000E-01  1.50000000E+00
  8.00000000E-01  8.00000000E-01  1.50000000E+00  8.00000000E-01  8.00000000E-01
  1.50000000E+00  8.00000000E-01  8.00000000E-01  1.50000000E+00  8.00000000E-01
  8.00000000E-01  1.50000000E+00  8.00000000E-01  8.00000000E-01  1.50000000E+00
  8.00000000E-01  8.00000000E-01  1.50000000E+00  8.00000000E-01  8.00000000E-01
  1.50000000E+00  8.00000000E-01  8.00000000E-01  1.50000000E+00  8.00000000E-01
  8.00000000E-01  1.50000000E+00  8.00000000E-01  8.00000000E-01  1.50000000E+00
  8.00000000E-01  8.00000000E-01  1.50000000E+00  8.00000000E-01  8.00000000E-01
  1.50000000E+00  8.00000000E-01  8.00000000E-01  1.50000000E+00  8.00000000E-01
  8.00000000E-01  1.50000000E+00  8.00000000E-01  8.00000000E-01  1.50000000E+00
  8.00000000E-01  8.00000000E-01  1.50000000E+00  8.00000000E-01  8.00000000E-01
  1.50000000E+00  8.00000000E-01  8.00000000E-01  1.50000000E+00  8.00000000E-01
  8.00000000E-01  1.50000000E+00  8.00000000E-01  8.00000000E-01  1.50000000E+00
  8.00000000E-01  8.00000000E-01  1.50000000E+00  8.00000000E-01  8.00000000E-01
  1.50000000E+00  8.00000000E-01  8.00000000E-01  1.50000000E+00  8.00000000E-01
  8.00000000E-01  1.50000000E+00  8.00000000E-01  8.00000000E-01  1.50000000E+00
  8.00000000E-01  8.00000000E-01  1.50000000E+00  8.00000000E-01  8.00000000E-01
  1.50000000E+00  8.00000000E-01  8.00000000E-01  1.50000000E+00  8.00000000E-01
  8.00000000E-01  1.50000000E+00  8.00000000E-01  8.00000000E-01  1.50000000E+00
  8.00000000E-01  8.00000000E-01  1.50000000E+00  8.00000000E-01  8.00000000E-01
  1.50000000E+00  8.00000000E-01  8.00000000E-01  1.50000000E+00  8.00000000E-01
  8.00000000E-01  1.50000000E+00  8.00000000E-01  8.00000000E-01  1.50000000E+00
  8.00000000E-01  8.00000000E-01  1.50000000E+00  8.00000000E-01  8.00000000E-01
  1.50000000E+00  8.00000000E-01  8.00000000E-01  1.50000000E+00  8.00000000E-01
  8.00000000E-01  1.50000000E+00  8.00000000E-01  8.00000000E-01  1.50000000E+00
  8.00000000E-01  8.00000000E-01  1.50000000E+00  8.00000000E-01  8.00000000E-01
  1.50000000E+00  8.00000000E-01  8.00000000E-01  1.50000000E+00  8.00000000E-01
  8.00000000E-01  1.50000000E+00  8.00000000E-01  8.00000000E-01  1.50000000E+00
  8.00000000E-01  8.00000000E-01  1.50000000E+00  8.00000000E-01  8.00000000E-01
  1.50000000E+00  8.00000000E-01  8.00000000E-01  1.50000000E+00  8.00000000E-01
  8.00000000E-01  1.50000000E+00  8.00000000E-01  8.00000000E-01  1.50000000E+00
  8.00000000E-01  8.00000000E-01  1.50000000E+00  8.00000000E-01  8.00000000E-01
  1.50000000E+00  8.00000000E-01  8.00000000E-01  1.50000000E+00  8.00000000E-01
  8.00000000E-01  1.50000000E+00  8.00000000E-01  8.00000000E-01  1.50000000E+00
  8.00000000E-01  8.00000000E-01  1.50000000E+00  8.00000000E-01  8.00000000E-01
  1.50000000E+00  8.00000000E-01  8.00000000E-01  1.50000000E+00  8.00000000E-01
  8.00000000E-01  1.50000000E+00  8.00000000E-01  8.00000000E-01  1.50000000E+00
  8.00000000E-01  8.00000000E-01  1.50000000E+00  8.00000000E-01  8.00000000E-01
  1.50000000E+00  8.00000000E-01  8.00000000E-01  1.50000000E+00  8.00000000E-01
  8.00000000E-01  1.50000000E+00  8.00000000E-01  8.00000000E-01  1.50000000E+00
  8.00000000E-01  8.00000000E-01  1.50000000E+00  8.00000000E-01  8.00000000E-01
  1.50000000E+00  8.00000000E-01  8.00000000E-01  1.50000000E+00  8.00000000E-01
  8.00000000E-01  1.50000000E+00  8.00000000E-01  8.00000000E-01  1.50000000E+00
  8.00000000E-01  8.00000000E-01  1.50000000E+00  8.00000000E-01  8.00000000E-01
  1.50000000E+00  8.00000000E-01  8.00000000E-01  1.50000000E+00  8.00000000E-01
  8.00000000E-01  1.50000000E+00  8.00000000E-01  8.00000000E-01  1.50000000E+00
  8.00000000E-01  8.00000000E-01  1.50000000E+00  8.00000000E-01  8.00000000E-01
  1.50000000E+00  8.00000000E-01  8.00000000E-01  1.50000000E+00  8.00000000E-01
  8.00000000E-01  1.50000000E+00  8.00000000E-01  8.00000000E-01  1.50000000E+00
  8.00000000E-01  8.00000000E-01  1.50000000E+00  8.00000000E-01  8.00000000E-01
  1.50000000E+00  8.00000000E-01  8.00000000E-01  1.50000000E+00  8.00000000E-01
  8.00000000E-01  1.50000000E+00  8.00000000E-01  8.00000000E-01  1.50000000E+00
  8.00000000E-01  8.00000000E-01  1.50000000E+00  8.00000000E-01  8.00000000E-01
  1.50000000E+00  8.00000000E-01  8.00000000E-01  1.50000000E+00  8.00000000E-01
  8.00000000E-01  1.50000000E+00  8.00000000E-01  8.00000000E-01  1.50000000E+00
  8.00000000E-01  8.00000000E-01  1.50000000E+00  8.00000000E-01  8.00000000E-01
  1.50000000E+00  8.00000000E-01  8.00000000E-01  1.50000000E+00  8.00000000E-01
  8.00000000E-01  1.50000000E+00  8.00000000E-01  8.00000000E-01  1.50000000E+00
  8.00000000E-01  8.00000000E-01  1.50000000E+00  8.00000000E-01  8.00000000E-01
  1.50000000E+00  8.00000000E-01  8.00000000E-01  1.50000000E+00  8.00000000E-01
  8.00000000E-01  1.50000000E+00  8.00000000E-01  8.00000000E-01  1.50000000E+00
  8.00000000E-01  8.00000000E-01  1.50000000E+00  8.00000000E-01  8.00000000E-01
  1.50000000E+00  8.00000000E-01  8.00000000E-01  1.50000000E+00  8.00000000E-01
  8.00000000E-01  1.50000000E+00  8.00000000E-01  8.00000000E-01  1.50000000E+00
  8.00000000E-01  8.00000000E-01  1.50000000E+00  8.00000000E-01  8.00000000E-01
  1.50000000E+00  8.00000000E-01  8.00000000E-01  1.50000000E+00  8.00000000E-01
  8.00000000E-01  1.50000000E+00  8.00000000E-01  8.00000000E-01  1.50000000E+00
  8.00000000E-01  8.00000000E-01  1.50000000E+00  8.00000000E-01  8.00000000E-01
  1.50000000E+00  8.00000000E-01  8.00000000E-01  1.50000000E+00  8.00000000E-01
  8.00000000E-01  1.50000000E+00  8.00000000E-01  8.00000000E-01  1.50000000E+00
  8.00000000E-01  8.00000000E-01  1.50000000E+00  8.00000000E-01  8.00000000E-01
  1.50000000E+00  8.00000000E-01  8.00000000E-01  1.50000000E+00  8.00000000E-01
  8.00000000E-01  1.50000000E+00  8.00000000E-01  8.00000000E-01  1.50000000E+00
  8.00000000E-01  8.00000000E-01  1.50000000E+00  8.00000000E-01  8.00000000E-01
  1.50000000E+00  8.00000000E-01  8.00000000E-01  1.50000000E+00  8.00000000E-01
  8.00000000E-01  1.50000000E+00  8.00000000E-01  8.00000000E-01  1.50000000E+00
  8.00000000E-01  8.00000000E-01  1.50000000E+00  8.00000000E-01  8.00000000E-01
  1.50000000E+00  8.00000000E-01  8.00000000E-01  1.50000000E+00  8.00000000E-01
  8.00000000E-01  1.50000000E+00  8.00000000E-01  8.00000000E-01  1.50000000E+00
  8.00000000E-01  8.00000000E-01  1.50000000E+00  8.00000000E-01  8.00000000E-01
  1.50000000E+00  8.00000000E-01  8.00000000E-01  1.50000000E+00  8.00000000E-01
  8.00000000E-01  1.50000000E+00  8.00000000E-01  8.00000000E-01  1.50000000E+00
  8.00000000E-01  8.00000000E-01  1.50000000E+00  8.00000000E-01  8.00000000E-01
  1.50000000E+00  8.00000000E-01  8.00000000E-01  1.50000000E+00  8.00000000E-01
  8.00000000E-01  1.50000000E+00  8.00000000E-01  8.00000000E-01  1.50000000E+00
  8.00000000E-01  8.00000000E-01  1.50000000E+00  8.00000000E-01  8.00000000E-01
  1.50000000E+00  8.00000000E-01  8.00000000E-01  1.50000000E+00  8.00000000E-01
  8.00000000E-01  1.50000000E+00  8.00000000E-01  8.00000000E-01  1.50000000E+00
  8.00000000E-01  8.00000000E-01  1.50000000E+00  8.00000000E-01  8.00000000E-01
  1.50000000E+00  8.00000000E-01  8.00000000E-01  1.50000000E+00  8.00000000E-01
  8.00000000E-01  1.50000000E+00  8.00000000E-01  8.00000000E-01  1.50000000E+00
  8.00000000E-01  8.00000000E-01  1.50000000E+00  8.00000000E-01  8.00000000E-01
  1.50000000E+00  8.00000000E-01  8.00000000E-01  1.50000000E+00  8.00000000E-01
  8.00000000E-01  1.50000000E+00  8.00000000E-01  8.00000000E-01  1.50000000E+00
  8.00000000E-01  8.00000000E-01  1.50000000E+00  8.00000000E-01  8.00000000E-01
  1.50000000E+00  8.00000000E-01  8.00000000E-01  1.50000000E+00  8.00000000E-01
  8.00000000E-01  1.50000000E+00  8.00000000E-01  8.00000000E-01  1.50000000E+00
  8.00000000E-01  8.00000000E-01  1.50000000E+00  8.00000000E-01  8.00000000E-01
  1.50000000E+00  8.00000000E-01  8.00000000E-01  1.50000000E+00  8.00000000E-01
  8.00000000E-01  1.50000000E+00  8.00000000E-01  8.00000000E-01  1.50000000E+00
  8.00000000E-01  8.00000000E-01  1.50000000E+00  8.00000000E-01  8.00000000E-01
  1.50000000E+00  8.00000000E-01  8.00000000E-01  1.50000000E+00  8.00000000E-01
  8.00000000E-01  1.50000000E+00  8.00000000E-01  8.00000000E-01  1.50000000E+00
  8.00000000E-01  8.00000000E-01  1.50000000E+00  8.00000000E-01  8.00000000E-01
  1.50000000E+00  8.00000000E-01  8.00000000E-01  1.50000000E+00  8.00000000E-01
  8.00000000E-01  1.50000000E+00  8.00000000E-01  8.00000000E-01  1.50000000E+00
  8.00000000E-01  8.00000000E-01  1.50000000E+00  8.00000000E-01  8.00000000E-01
  1.50000000E+00  8.00000000E-01  8.00000000E-01  1.50000000E+00  8.00000000E-01
  8.00000000E-01  1.50000000E+00  8.00000000E-01  8.00000000E-01  1.50000000E+00
  8.00000000E-01  8.00000000E-01  1.50000000E+00  8.00000000E-01  8.00000000E-01
  1.50000000E+00  8.00000000E-01  8.00000000E-01  1.50000000E+00  8.00000000E-01
  8.00000000E-01  1.50000000E+00  8.00000000E-01  8.00000000E-01  1.50000000E+00
  8.00000000E-01  8.00000000E-01  1.50000000E+00  8.00000000E-01  8.00000000E-01
  1.50000000E+00  8.00000000E-01  8.00000000E-01  1.50000000E+00  8.00000000E-01
  8.00000000E-01  1.50000000E+00  8.00000000E-01  8.00000000E-01  1.50000000E+00
  8.00000000E-01  8.00000000E-01  1.50000000E+00  8.00000000E-01  8.00000000E-01
  1.50000000E+00  8.00000000E-01  8.00000000E-01  1.50000000E+00  8.00000000E-01
  8.00000000E-01  1.50000000E+00  8.00000000E-01  8.00000000E-01  1.50000000E+00
  8.00000000E-01  8.00000000E-01  1.50000000E+00  8.00000000E-01  8.00000000E-01
  1.50000000E+00  8.00000000E-01  8.00000000E-01  1.50000000E+00  8.00000000E-01
  8.00000000E-01  1.50000000E+00  8.00000000E-01  8.00000000E-01  1.50000000E+00
  8.00000000E-01  8.00000000E-01  1.50000000E+00  8.00000000E-01  8.00000000E-01
  1.50000000E+00  8.00000000E-01  8.00000000E-01  1.50000000E+00  8.00000000E-01
  8.00000000E-01  1.50000000E+00  8.00000000E-01  8.00000000E-01  1.50000000E+00
  8.00000000E-01  8.00000000E-01  1.50000000E+00  8.00000000E-01  8.00000000E-01
  1.50000000E+00  8.00000000E-01  8.00000000E-01  1.50000000E+00  8.00000000E-01
  8.00000000E-01  1.50000000E+00  8.00000000E-01  8.00000000E-01  1.50000000E+00
  8.00000000E-01  8.00000000E-01  1.50000000E+00  8.00000000E-01  8.00000000E-01
  1.50000000E+00  8.00000000E-01  8.00000000E-01  1.50000000E+00  8.00000000E-01
  8.00000000E-01  1.50000000E+00  8.00000000E-01  8.00000000E-01  1.50000000E+00
  8.00000000E-01  8.00000000E-01  1.50000000E+00  8.00000000E-01  8.00000000E-01
  1.50000000E+00  8.00000000E-01  8.00000000E-01  1.50000000E+00  8.00000000E-01
  8.00000000E-01  1.50000000E+00  8.00000000E-01  8.00000000E-01  1.50000000E+00
  8.00000000E-01  8.00000000E-01  1.50000000E+00  8.00000000E-01  8.00000000E-01
  1.50000000E+00  8.00000000E-01  8.00000000E-01  1.50000000E+00  8.00000000E-01
  8.00000000E-01  1.50000000E+00  8.00000000E-01  8.00000000E-01  1.50000000E+00
  8.00000000E-01  8.00000000E-01  1.50000000E+00  8.00000000E-01  8.00000000E-01
  1.50000000E+00  8.00000000E-01  8.00000000E-01  1.50000000E+00  8.00000000E-01
  8.00000000E-01  1.50000000E+00  8.00000000E-01  8.00000000E-01  1.50000000E+00
  8.00000000E-01  8.00000000E-01  1.50000000E+00  8.00000000E-01  8.00000000E-01
  1.50000000E+00  8.00000000E-01  8.00000000E-01  1.50000000E+00  8.00000000E-01
  8.00000000E-01  1.50000000E+00  8.00000000E-01  8.00000000E-01  1.50000000E+00
  8.00000000E-01  8.00000000E-01  1.50000000E+00  8.00000000E-01  8.00000000E-01
  1.50000000E+00  8.00000000E-01  8.00000000E-01  1.50000000E+00  8.00000000E-01
  8.00000000E-01  1.50000000E+00  8.00000000E-01  8.00000000E-01  1.50000000E+00
  8.00000000E-01  8.00000000E-01  1.50000000E+00  8.00000000E-01  8.00000000E-01
  1.50000000E+00  8.00000000E-01  8.00000000E-01  1.50000000E+00  8.00000000E-01
  8.00000000E-01  1.50000000E+00  8.00000000E-01  8.00000000E-01  1.50000000E+00
  8.00000000E-01  8.00000000E-01  1.50000000E+00  8.00000000E-01  8.00000000E-01
  1.50000000E+00  8.00000000E-01  8.00000000E-01  1.50000000E+00  8.00000000E-01
  8.00000000E-01  1.50000000E+00  8.00000000E-01  8.00000000E-01  1.50000000E+00
  8.00000000E-01  8.00000000E-01  1.50000000E+00  8.00000000E-01  8.00000000E-01
  1.50000000E+00  8.00000000E-01  8.00000000E-01  1.50000000E+00  8.00000000E-01
  8.00000000E-01  1.50000000E+00  8.00000000E-01  8.00000000E-01  1.50000000E+00
  8.00000000E-01  8.00000000E-01  1.50000000E+00  8.00000000E-01  8.00000000E-01
  1.50000000E+00  8.00000000E-01  8.00000000E-01  1.50000000E+00  8.00000000E-01
  8.00000000E-01  1.50000000E+00  8.00000000E-01  8.00000000E-01  1.50000000E+00
  8.00000000E-01  8.00000000E-01  1.50000000E+00  8.00000000E-01  8.00000000E-01
  1.50000000E+00  8.00000000E-01  8.00000000E-01  1.50000000E+00  8.00000000E-01
  8.00000000E-01  1.50000000E+00  8.00000000E-01  8.00000000E-01  1.50000000E+00
  8.00000000E-01  8.00000000E-01  1.50000000E+00  8.00000000E-01  8.00000000E-01
  1.50000000E+00  8.00000000E-01  8.00000000E-01  1.50000000E+00  8.00000000E-01
  8.00000000E-01  1.50000000E+00  8.00000000E-01  8.00000000E-01  1.50000000E+00
  8.00000000E-01  8.00000000E-01  1.50000000E+00  8.00000000E-01  8.00000000E-01
  1.50000000E+00  8.00000000E-01  8.00000000E-01  1.50000000E+00  8.00000000E-01
  8.00000000E-01  1.50000000E+00  8.00000000E-01  8.00000000E-01  1.50000000E+00
  8.00000000E-01  8.00000000E-01  1.50000000E+00  8.00000000E-01  8.00000000E-01
  1.50000000E+00  8.00000000E-01  8.00000000E-01  1.50000000E+00  8.00000000E-01
  8.00000000E-01  1.50000000E+00  8.00000000E-01  8.00000000E-01  1.50000000E+00
  8.00000000E-01  8.00000000E-01  1.50000000E+00  8.00000000E-01  8.00000000E-01
  1.50000000E+00  8.00000000E-01  8.00000000E-01  1.50000000E+00  8.00000000E-01
  8.00000000E-01  1.50000000E+00  8.00000000E-01  8.00000000E-01  1.50000000E+00
  8.00000000E-01  8.00000000E-01  1.50000000E+00  8.00000000E-01  8.00000000E-01
  1.50000000E+00  8.00000000E-01  8.00000000E-01  1.50000000E+00  8.00000000E-01
  8.00000000E-01  1.50000000E+00  8.00000000E-01  8.00000000E-01  1.50000000E+00
  8.00000000E-01  8.00000000E-01  1.50000000E+00  8.00000000E-01  8.00000000E-01
  1.50000000E+00  8.00000000E-01  8.00000000E-01  1.50000000E+00  8.00000000E-01
  8.00000000E-01  1.50000000E+00  8.00000000E-01  8.00000000E-01  1.50000000E+00
  8.00000000E-01  8.00000000E-01  1.50000000E+00  8.00000000E-01  8.00000000E-01
  1.50000000E+00  8.00000000E-01  8.00000000E-01  1.50000000E+00  8.00000000E-01
  8.00000000E-01  1.50000000E+00  8.00000000E-01  8.00000000E-01  1.50000000E+00
  8.00000000E-01  8.00000000E-01  1.50000000E+00  8.00000000E-01  8.00000000E-01
  1.50000000E+00  8.00000000E-01  8.00000000E-01  1.50000000E+00  8.00000000E-01
  8.00000000E-01  1.50000000E+00  8.00000000E-01  8.00000000E-01  1.50000000E+00
  8.00000000E-01  8.00000000E-01  1.50000000E+00  8.00000000E-01  8.00000000E-01
  1.50000000E+00  8.00000000E-01  8.00000000E-01  1.50000000E+00  8.00000000E-01
  8.00000000E-01  1.50000000E+00  8.00000000E-01  8.00000000E-01  1.50000000E+00
  8.00000000E-01  8.00000000E-01  1.50000000E+00  8.00000000E-01  8.00000000E-01
  1.50000000E+00  8.00000000E-01  8.00000000E-01  1.50000000E+00  8.00000000E-01
  8.00000000E-01  1.50000000E+00  8.00000000E-01  8.00000000E-01  1.50000000E+00
  8.00000000E-01  8.00000000E-01  1.50000000E+00  8.00000000E-01  8.00000000E-01
  1.50000000E+00  8.00000000E-01  8.00000000E-01  1.50000000E+00  8.00000000E-01
  8.00000000E-01  1.50000000E+00  8.00000000E-01  8.00000000E-01  1.50000000E+00
  8.00000000E-01  8.00000000E-01  1.50000000E+00  8.00000000E-01  8.00000000E-01
  1.50000000E+00  8.00000000E-01  8.00000000E-01  1.50000000E+00  8.00000000E-01
  8.00000000E-01  1.50000000E+00  8.00000000E-01  8.00000000E-01  1.50000000E+00
  8.00000000E-01  8.00000000E-01  1.50000000E+00  8.00000000E-01  8.00000000E-01
  1.50000000E+00  8.00000000E-01  8.00000000E-01  1.50000000E+00  8.00000000E-01
  8.00000000E-01  1.50000000E+00  8.00000000E-01  8.00000000E-01  1.50000000E+00
  8.00000000E-01  8.00000000E-01  1.50000000E+00  8.00000000E-01  8.00000000E-01
  1.50000000E+00  8.00000000E-01  8.00000000E-01  1.50000000E+00  8.00000000E-01
  8.00000000E-01  1.50000000E+00  8.00000000E-01  8.00000000E-01  1.50000000E+00
  8.00000000E-01  8.00000000E-01  1.50000000E+00  8.00000000E-01  8.00000000E-01
  1.50000000E+00  8.00000000E-01  8.00000000E-01  1.50000000E+00  8.00000000E-01
  8.00000000E-01  1.50000000E+00  8.00000000E-01  8.00000000E-01  1.50000000E+00
  8.00000000E-01  8.00000000E-01  1.50000000E+00  8.00000000E-01  8.00000000E-01
  1.50000000E+00  8.00000000E-01  8.00000000E-01  1.50000000E+00  8.00000000E-01
  8.00000000E-01  1.50000000E+00  8.00000000E-01  8.00000000E-01  1.50000000E+00
  8.00000000E-01  8.00000000E-01  1.50000000E+00  8.00000000E-01  8.00000000E-01
  1.50000000E+00  8.00000000E-01  8.00000000E-01  1.50000000E+00  8.00000000E-01
  8.00000000E-01  1.50000000E+00  8.00000000E-01  8.00000000E-01  1.50000000E+00
  8.00000000E-01  8.00000000E-01  1.50000000E+00  8.00000000E-01  8.00000000E-01
  1.50000000E+00  8.00000000E-01  8.00000000E-01  1.50000000E+00  8.00000000E-01
  8.00000000E-01  1.50000000E+00  8.00000000E-01  8.00000000E-01  1.50000000E+00
  8.00000000E-01  8.00000000E-01  1.50000000E+00  8.00000000E-01  8.00000000E-01
  1.50000000E+00  8.00000000E-01  8.00000000E-01  1.50000000E+00  8.00000000E-01
  8.00000000E-01  1.50000000E+00  8.00000000E-01  8.00000000E-01  1.50000000E+00
  8.00000000E-01  8.00000000E-01  1.50000000E+00  8.00000000E-01  8.00000000E-01
  1.50000000E+00  8.00000000E-01  8.00000000E-01  1.50000000E+00  8.00000000E-01
  8.00000000E-01  1.50000000E+00  8.00000000E-01  8.00000000E-01  1.50000000E+00
  8.00000000E-01  8.00000000E-01  1.50000000E+00  8.00000000E-01  8.00000000E-01
  1.50000000E+00  8.00000000E-01  8.00000000E-01  1.50000000E+00  8.00000000E-01
  8.00000000E-01  1.50000000E+00  8.00000000E-01  8.00000000E-01  1.50000000E+00
  8.00000000E-01  8.00000000E-01  1.50000000E+00  8.00000000E-01  8.00000000E-01
  1.50000000E+00  8.00000000E-01  8.00000000E-01  1.50000000E+00  8.00000000E-01
  8.00000000E-01  1.50000000E+00  8.00000000E-01  8.00000000E-01  1.50000000E+00
  8.00000000E-01  8.00000000E-01  1.50000000E+00  8.00000000E-01  8.00000000E-01
  1.50000000E+00  8.00000000E-01  8.00000000E-01  1.50000000E+00  8.00000000E-01
  8.00000000E-01  1.50000000E+00  8.00000000E-01  8.00000000E-01  1.50000000E+00
  8.00000000E-01  8.00000000E-01  1.50000000E+00  8.00000000E-01  8.00000000E-01
  1.50000000E+00  8.00000000E-01  8.00000000E-01  1.50000000E+00  8.00000000E-01
  8.00000000E-01  1.50000000E+00  8.00000000E-01  8.00000000E-01  1.50000000E+00
  8.00000000E-01  8.00000000E-01  1.50000000E+00  8.00000000E-01  8.00000000E-01
  1.50000000E+00  8.00000000E-01  8.00000000E-01  1.50000000E+00  8.00000000E-01
  8.00000000E-01  1.50000000E+00  8.00000000E-01  8.00000000E-01  1.50000000E+00
  8.00000000E-01  8.00000000E-01  1.50000000E+00  8.00000000E-01  8.00000000E-01
  1.50000000E+00  8.00000000E-01  8.00000000E-01  1.50000000E+00  8.00000000E-01
  8.00000000E-01  1.50000000E+00  8.00000000E-01  8.00000000E-01  1.50000000E+00
  8.00000000E-01  8.00000000E-01  1.50000000E+00  8.00000000E-01  8.00000000E-01
  1.50000000E+00  8.00000000E-01  8.00000000E-01  1.50000000E+00  8.00000000E-01
  8.00000000E-01  1.50000000E+00  8.00000000E-01  8.00000000E-01  1.50000000E+00
  8.00000000E-01  8.00000000E-01  1.50000000E+00  8.00000000E-01  8.00000000E-01
  1.50000000E+00  8.00000000E-01  8.00000000E-01  1.50000000E+00  8.00000000E-01
  8.00000000E-01  1.50000000E+00  8.00000000E-01  8.00000000E-01  1.50000000E+00
  8.00000000E-01  8.00000000E-01  1.50000000E+00  8.00000000E-01  8.00000000E-01
  1.50000000E+00  8.00000000E-01  8.00000000E-01  1.50000000E+00  8.00000000E-01
  8.00000000E-01  1.50000000E+00  8.00000000E-01  8.00000000E-01  1.50000000E+00
  8.00000000E-01  8.00000000E-01  1.50000000E+00  8.00000000E-01  8.00000000E-01
  1.50000000E+00  8.00000000E-01  8.00000000E-01  1.50000000E+00  8.00000000E-01
  8.00000000E-01  1.50000000E+00  8.00000000E-01  8.00000000E-01  1.50000000E+00
  8.00000000E-01  8.00000000E-01  1.50000000E+00  8.00000000E-01  8.00000000E-01
  1.50000000E+00  8.00000000E-01  8.00000000E-01  1.50000000E+00  8.00000000E-01
  8.00000000E-01  1.50000000E+00  8.00000000E-01  8.00000000E-01  1.50000000E+00
  8.00000000E-01  8.00000000E-01  1.50000000E+00  8.00000000E-01  8.00000000E-01
  1.50000000E+00  8.00000000E-01  8.00000000E-01  1.50000000E+00  8.00000000E-01
  8.00000000E-01  1.50000000E+00  8.00000000E-01  8.00000000E-01  1.50000000E+00
  8.00000000E-01  8.00000000E-01  1.50000000E+00  8.00000000E-01  8.00000000E-01
  1.50000000E+00  8.00000000E-01  8.00000000E-01  1.50000000E+00  8.00000000E-01
  8.00000000E-01  1.50000000E+00  8.00000000E-01  8.00000000E-01  1.50000000E+00
  8.00000000E-01  8.00000000E-01  1.50000000E+00  8.00000000E-01  8.00000000E-01
  1.50000000E+00  8.00000000E-01  8.00000000E-01  1.50000000E+00  8.00000000E-01
  8.00000000E-01  1.50000000E+00  8.00000000E-01  8.00000000E-01  1.50000000E+00
  8.00000000E-01  8.00000000E-01  1.50000000E+00  8.00000000E-01  8.00000000E-01
  1.50000000E+00  8.00000000E-01  8.00000000E-01  1.50000000E+00  8.00000000E-01
  8.00000000E-01  1.50000000E+00  8.00000000E-01  8.00000000E-01  1.50000000E+00
  8.00000000E-01  8.00000000E-01  1.50000000E+00  8.00000000E-01  8.00000000E-01
  1.50000000E+00  8.00000000E-01  8.00000000E-01  1.50000000E+00  8.00000000E-01
  8.00000000E-01  1.50000000E+00  8.00000000E-01  8.00000000E-01  1.50000000E+00
  8.00000000E-01  8.00000000E-01  1.50000000E+00  8.00000000E-01  8.00000000E-01
  1.50000000E+00  8.00000000E-01  8.00000000E-01  1.50000000E+00  8.00000000E-01
  8.00000000E-01  1.50000000E+00  8.00000000E-01  8.00000000E-01  1.50000000E+00
  8.00000000E-01  8.00000000E-01  1.50000000E+00  8.00000000E-01  8.00000000E-01
  1.50000000E+00  8.00000000E-01  8.00000000E-01  1.50000000E+00  8.00000000E-01
  8.00000000E-01  1.50000000E+00  8.00000000E-01  8.00000000E-01  1.50000000E+00
  8.00000000E-01  8.00000000E-01  1.50000000E+00  8.00000000E-01  8.00000000E-01
  1.50000000E+00  8.00000000E-01  8.00000000E-01  1.50000000E+00  8.00000000E-01
  8.00000000E-01  1.50000000E+00  8.00000000E-01  8.00000000E-01  1.50000000E+00
  8.00000000E-01  8.00000000E-01  1.50000000E+00  8.00000000E-01  8.00000000E-01
  1.50000000E+00  8.00000000E-01  8.00000000E-01  1.50000000E+00  8.00000000E-01
  8.00000000E-01  1.50000000E+00  8.00000000E-01  8.00000000E-01  1.50000000E+00
  8.00000000E-01  8.00000000E-01  1.50000000E+00  8.00000000E-01  8.00000000E-01
  1.50000000E+00  8.00000000E-01  8.00000000E-01  1.50000000E+00  8.00000000E-01
  8.00000000E-01  1.50000000E+00  8.00000000E-01  8.00000000E-01  1.50000000E+00
  8.00000000E-01  8.00000000E-01  1.50000000E+00  8.00000000E-01  8.00000000E-01
  1.50000000E+00  8.00000000E-01  8.00000000E-01  1.50000000E+00  8.00000000E-01
  8.00000000E-01  1.50000000E+00  8.00000000E-01  8.00000000E-01  1.50000000E+00
  8.00000000E-01  8.00000000E-01  1.50000000E+00  8.00000000E-01  8.00000000E-01
  1.50000000E+00  8.00000000E-01  8.00000000E-01  1.50000000E+00  8.00000000E-01
  8.00000000E-01  1.50000000E+00  8.00000000E-01  8.00000000E-01  1.50000000E+00
  8.00000000E-01  8.00000000E-01  1.50000000E+00  8.00000000E-01  8.00000000E-01
  1.50000000E+00  8.00000000E-01  8.00000000E-01  1.50000000E+00  8.00000000E-01
  8.00000000E-01  1.50000000E+00  8.00000000E-01  8.00000000E-01  1.50000000E+00
  8.00000000E-01  8.00000000E-01  1.50000000E+00  8.00000000E-01  8.00000000E-01
  1.50000000E+00  8.00000000E-01  8.00000000E-01  1.50000000E+00  8.00000000E-01
  8.00000000E-01  1.50000000E+00  8.00000000E-01  8.00000000E-01  1.50000000E+00
  8.00000000E-01  8.00000000E-01  1.50000000E+00  8.00000000E-01  8.00000000E-01
  1.50000000E+00  8.00000000E-01  8.00000000E-01  1.50000000E+00  8.00000000E-01
  8.00000000E-01  1.50000000E+00  8.00000000E-01  8.00000000E-01  1.50000000E+00
  8.00000000E-01  8.00000000E-01  1.50000000E+00  8.00000000E-01  8.00000000E-01
  1.50000000E+00  8.00000000E-01  8.00000000E-01  1.50000000E+00  8.00000000E-01
  8.00000000E-01  1.50000000E+00  8.00000000E-01  8.00000000E-01  1.50000000E+00
  8.00000000E-01  8.00000000E-01  1.50000000E+00  8.00000000E-01  8.00000000E-01
  1.50000000E+00  8.00000000E-01  8.00000000E-01  1.50000000E+00  8.00000000E-01
  8.00000000E-01  1.50000000E+00  8.00000000E-01  8.00000000E-01  1.50000000E+00
  8.00000000E-01  8.00000000E-01  1.50000000E+00  8.00000000E-01  8.00000000E-01
  1.50000000E+00  8.00000000E-01  8.00000000E-01  1.50000000E+00  8.00000000E-01
  8.00000000E-01  1.50000000E+00  8.00000000E-01  8.00000000E-01  1.50000000E+00
  8.00000000E-01  8.00000000E-01  1.50000000E+00  8.00000000E-01  8.00000000E-01
  1.50000000E+00  8.00000000E-01  8.00000000E-01  1.50000000E+00  8.00000000E-01
  8.00000000E-01  1.50000000E+00  8.00000000E-01  8.00000000E-01  1.50000000E+00
  8.00000000E-01  8.00000000E-01  1.50000000E+00  8.00000000E-01  8.00000000E-01
  1.50000000E+00  8.00000000E-01  8.00000000E-01  1.50000000E+00  8.00000000E-01
  8.00000000E-01  1.50000000E+00  8.00000000E-01  8.00000000E-01  1.50000000E+00
  8.00000000E-01  8.00000000E-01  1.50000000E+00  8.00000000E-01  8.00000000E-01
  1.50000000E+00  8.00000000E-01  8.00000000E-01  1.50000000E+00  8.00000000E-01
  8.00000000E-01  1.50000000E+00  8.00000000E-01  8.00000000E-01  1.50000000E+00
  8.00000000E-01  8.00000000E-01  1.50000000E+00  8.00000000E-01  8.00000000E-01
  1.50000000E+00  8.00000000E-01  8.00000000E-01  1.50000000E+00  8.00000000E-01
  8.00000000E-01  1.50000000E+00  8.00000000E-01  8.00000000E-01  1.50000000E+00
  8.00000000E-01  8.00000000E-01  1.50000000E+00  8.00000000E-01  8.00000000E-01
  1.50000000E+00  8.00000000E-01  8.00000000E-01  1.50000000E+00  8.00000000E-01
  8.00000000E-01  1.50000000E+00  8.00000000E-01  8.00000000E-01  1.50000000E+00
  8.00000000E-01  8.00000000E-01  1.50000000E+00  8.00000000E-01  8.00000000E-01
  1.50000000E+00  8.00000000E-01  8.00000000E-01  1.50000000E+00  8.00000000E-01
  8.00000000E-01  1.50000000E+00  8.00000000E-01  8.00000000E-01  1.50000000E+00
  8.00000000E-01  8.00000000E-01  1.50000000E+00  8.00000000E-01  8.00000000E-01
  1.50000000E+00  8.00000000E-01  8.00000000E-01  1.50000000E+00  8.00000000E-01
  8.00000000E-01  1.50000000E+00  8.00000000E-01  8.00000000E-01  1.50000000E+00
  8.00000000E-01  8.00000000E-01  1.50000000E+00  8.00000000E-01  8.00000000E-01
  1.50000000E+00  8.00000000E-01  8.00000000E-01  1.50000000E+00  8.00000000E-01
  8.00000000E-01  1.50000000E+00  8.00000000E-01  8.00000000E-01  1.50000000E+00
  8.00000000E-01  8.00000000E-01  1.50000000E+00  8.00000000E-01  8.00000000E-01
  1.50000000E+00  8.00000000E-01  8.00000000E-01  1.50000000E+00  8.00000000E-01
  8.00000000E-01  1.50000000E+00  8.00000000E-01  8.00000000E-01  1.50000000E+00
  8.00000000E-01  8.00000000E-01  1.50000000E+00  8.00000000E-01  8.00000000E-01
  1.50000000E+00  8.00000000E-01  8.00000000E-01  1.50000000E+00  8.00000000E-01
  8.00000000E-01  1.50000000E+00  8.00000000E-01  8.00000000E-01  1.50000000E+00
  8.00000000E-01  8.00000000E-01  1.50000000E+00  8.00000000E-01  8.00000000E-01
  1.50000000E+00  8.00000000E-01  8.00000000E-01  1.50000000E+00  8.00000000E-01
  8.00000000E-01  1.50000000E+00  8.00000000E-01  8.00000000E-01  1.50000000E+00
  8.00000000E-01  8.00000000E-01  1.50000000E+00  8.00000000E-01  8.00000000E-01
  1.50000000E+00  8.00000000E-01  8.00000000E-01  1.50000000E+00  8.00000000E-01
  8.00000000E-01  1.50000000E+00  8.00000000E-01  8.00000000E-01  1.50000000E+00
  8.00000000E-01  8.00000000E-01  1.50000000E+00  8.00000000E-01  8.00000000E-01
  1.50000000E+00  8.00000000E-01  8.00000000E-01  1.50000000E+00  8.00000000E-01
  8.00000000E-01  1.50000000E+00  8.00000000E-01  8.00000000E-01  1.50000000E+00
  8.00000000E-01  8.00000000E-01  1.50000000E+00  8.00000000E-01  8.00000000E-01
  1.50000000E+00  8.00000000E-01  8.00000000E-01  1.50000000E+00  8.00000000E-01
  8.00000000E-01  1.50000000E+00  8.00000000E-01  8.00000000E-01  1.50000000E+00
  8.00000000E-01  8.00000000E-01  1.50000000E+00  8.00000000E-01  8.00000000E-01
  1.50000000E+00  8.00000000E-01  8.00000000E-01  1.50000000E+00  8.00000000E-01
  8.00000000E-01  1.50000000E+00  8.00000000E-01  8.00000000E-01  1.50000000E+00
  8.00000000E-01  8.00000000E-01  1.50000000E+00  8.00000000E-01  8.00000000E-01
  1.50000000E+00  8.00000000E-01  8.00000000E-01  1.50000000E+00  8.00000000E-01
  8.00000000E-01  1.50000000E+00  8.00000000E-01  8.00000000E-01  1.50000000E+00
  8.00000000E-01  8.00000000E-01  1.50000000E+00  8.00000000E-01  8.00000000E-01
  1.50000000E+00  8.00000000E-01  8.00000000E-01  1.50000000E+00  8.00000000E-01
  8.00000000E-01  1.50000000E+00  8.00000000E-01  8.00000000E-01  1.50000000E+00
  8.00000000E-01  8.00000000E-01  1.50000000E+00  8.00000000E-01  8.00000000E-01
  1.50000000E+00  8.00000000E-01  8.00000000E-01  1.50000000E+00  8.00000000E-01
  8.00000000E-01  1.50000000E+00  8.00000000E-01  8.00000000E-01  1.50000000E+00
  8.00000000E-01  8.00000000E-01  1.50000000E+00  8.00000000E-01  8.00000000E-01
  1.50000000E+00  8.00000000E-01  8.00000000E-01  1.50000000E+00  8.00000000E-01
  8.00000000E-01  1.50000000E+00  8.00000000E-01  8.00000000E-01  1.50000000E+00
  8.00000000E-01  8.00000000E-01  1.50000000E+00  8.00000000E-01  8.00000000E-01
  1.50000000E+00  8.00000000E-01  8.00000000E-01  1.50000000E+00  8.00000000E-01
  8.00000000E-01  1.50000000E+00  8.00000000E-01  8.00000000E-01  1.50000000E+00
  8.00000000E-01  8.00000000E-01  1.50000000E+00  8.00000000E-01  8.00000000E-01
  1.50000000E+00  8.00000000E-01  8.00000000E-01  1.50000000E+00  8.00000000E-01
  8.00000000E-01  1.50000000E+00  8.00000000E-01  8.00000000E-01  1.50000000E+00
  8.00000000E-01  8.00000000E-01  1.50000000E+00  8.00000000E-01  8.00000000E-01
  1.50000000E+00  8.00000000E-01  8.00000000E-01  1.50000000E+00  8.00000000E-01
  8.00000000E-01  1.50000000E+00  8.00000000E-01  8.00000000E-01  1.50000000E+00
  8.00000000E-01  8.00000000E-01  1.50000000E+00  8.00000000E-01  8.00000000E-01
  1.50000000E+00  8.00000000E-01  8.00000000E-01  1.50000000E+00  8.00000000E-01
  8.00000000E-01  1.50000000E+00  8.00000000E-01  8.00000000E-01  1.50000000E+00
  8.00000000E-01  8.00000000E-01  1.50000000E+00  8.00000000E-01  8.00000000E-01
  1.50000000E+00  8.00000000E-01  8.00000000E-01  1.50000000E+00  8.00000000E-01
  8.00000000E-01  1.50000000E+00  8.00000000E-01  8.00000000E-01  1.50000000E+00
  8.00000000E-01  8.00000000E-01  1.50000000E+00  8.00000000E-01  8.00000000E-01
  1.50000000E+00  8.00000000E-01  8.00000000E-01  1.50000000E+00  8.00000000E-01
  8.00000000E-01  1.50000000E+00  8.00000000E-01  8.00000000E-01  1.50000000E+00
  8.00000000E-01  8.00000000E-01  1.50000000E+00  8.00000000E-01  8.00000000E-01
  1.50000000E+00  8.00000000E-01  8.00000000E-01  1.50000000E+00  8.00000000E-01
  8.00000000E-01  1.50000000E+00  8.00000000E-01  8.00000000E-01  1.50000000E+00
  8.00000000E-01  8.00000000E-01  1.50000000E+00  8.00000000E-01  8.00000000E-01
  1.50000000E+00  8.00000000E-01  8.00000000E-01  1.50000000E+00  8.00000000E-01
  8.00000000E-01  1.50000000E+00  8.00000000E-01  8.00000000E-01  1.50000000E+00
  8.00000000E-01  8.00000000E-01  1.50000000E+00  8.00000000E-01  8.00000000E-01
  1.50000000E+00  8.00000000E-01  8.00000000E-01  1.50000000E+00  8.00000000E-01
  8.00000000E-01  1.50000000E+00  8.00000000E-01  8.00000000E-01  1.50000000E+00
  8.00000000E-01  8.00000000E-01  1.50000000E+00  8.00000000E-01  8.00000000E-01
  1.50000000E+00  8.00000000E-01  8.00000000E-01  1.50000000E+00  8.00000000E-01
  8.00000000E-01  1.50000000E+00  8.00000000E-01  8.00000000E-01  1.50000000E+00
  8.00000000E-01  8.00000000E-01  1.50000000E+00  8.00000000E-01  8.00000000E-01
  1.50000000E+00  8.00000000E-01  8.00000000E-01  1.50000000E+00  8.00000000E-01
  8.00000000E-01  1.50000000E+00  8.00000000E-01  8.00000000E-01  1.50000000E+00
  8.00000000E-01  8.00000000E-01  1.50000000E+00  8.00000000E-01  8.00000000E-01
  1.50000000E+00  8.00000000E-01  8.00000000E-01  1.50000000E+00  8.00000000E-01
  8.00000000E-01  1.50000000E+00  8.00000000E-01  8.00000000E-01  1.50000000E+00
  8.00000000E-01  8.00000000E-01  1.50000000E+00  8.00000000E-01  8.00000000E-01
  1.50000000E+00  8.00000000E-01  8.00000000E-01  1.50000000E+00  8.00000000E-01
  8.00000000E-01  1.50000000E+00  8.00000000E-01  8.00000000E-01  1.50000000E+00
  8.00000000E-01  8.00000000E-01  1.50000000E+00  8.00000000E-01  8.00000000E-01
  1.50000000E+00  8.00000000E-01  8.00000000E-01  1.50000000E+00  8.00000000E-01
  8.00000000E-01  1.50000000E+00  8.00000000E-01  8.00000000E-01  1.50000000E+00
  8.00000000E-01  8.00000000E-01
%FLAG SCREEN                                                                    
%FORMAT(5E16.8)                                                                 
  7.20000000E-01  7.20000000E-01  7.20000000E-01  7.20000000E-01  7.20000000E-01
  7.20000000E-01  7.20000000E-01  7.20000000E-01  7.20000000E-01  7.20000000E-01
  7.20000000E-01  7.20000000E-01  7.20000000E-01  7.20000000E-01  7.20000000E-01
  7.20000000E-01  8.50000000E-01  8.50000000E-01  8.50000000E-01  8.50000000E-01
  8.50000000E-01  8.50000000E-01  8.50000000E-01  8.50000000E-01  8.50000000E-01
  8.50000000E-01  7.20000000E-01  8.50000000E-01  8.50000000E-01  8.50000000E-01
  7.20000000E-01  7.20000000E-01  8.50000000E-01  7.20000000E-01  7.20000000E-01
  7.20000000E-01  7.20000000E-01  7.20000000E-01  7.20000000E-01  8.50000000E-01
  7.90000000E-01  7.20000000E-01  7.20000000E-01  7.20000000E-01  7.20000000E-01
  8.50000000E-01  7.20000000E-01  7.20000000E-01  8.50000000E-01  7.20000000E-01
  7.20000000E-01  8.50000000E-01  8.50000000E-01  7.20000000E-01  8.50000000E-01
  7.20000000E-01  8.50000000E-01  7.20000000E-01  8.50000000E-01  8.50000000E-01
  8.50000000E-01  8.50000000E-01  8.50000000E-01  8.50000000E-01  8.50000000E-01
  8.50000000E-01  8.50000000E-01  8.50000000E-01  8.50000000E-01  8.50000000E-01
  8.50000000E-01  8.50000000E-01  8.50000000E-01  8.50000000E-01  8.50000000E-01
  8.50000000E-01  8.50000000E-01  8.50000000E-01  8.50000000E-01  8.50000000E-01
  8.50000000E-01  8.50000000E-01  8.50000000E-01  8.50000000E-01  8.50000000E-01
  7.20000000E-01  7.20000000E-01  8.50000000E-01  7.20000000E-01  7.20000000E-01
  7.20000000E-01  7.20000000E-01  7.20000000E-01  7.20000000E-01  8.50000000E-01
  7.90000000E-01  7.20000000E-01  7.20000000E-01  7.20000000E-01  7.20000000E-01
  8.50000000E-01  7.20000000E-01  7.20000000E-01  8.50000000E-01  7.20000000E-01
  7.20000000E-01  8.50000000E-01  8.50000000E-01  7.20000000E-01  8.50000000E-01
  7.20000000E-01  8.50000000E-01  7.20000000E-01  8.50000000E-01  8.50000000E-01
  8.50000000E-01  8.50000000E-01  8.50000000E-01  8.50000000E-01  8.50000000E-01
  8.50000000E-01  8.50000000E-01  8.50000000E-01  8.50000000E-01  8.50000000E-01
  8.50000000E-01  8.50000000E-01  8.50000000E-01  8.50000000E-01  8.50000000E-01
  8.50000000E-01  8.50000000E-01  8.50000000E-01  8.50000000E-01  8.50000000E-01
  8.50000000E-01  8.50000000E-01  8.50000000E-01  8.50000000E-01  8.50000000E-01
  7.20000000E-01  7.20000000E-01  8.50000000E-01  7.20000000E-01  7.20000000E-01
  7.20000000E-01  7.20000000E-01  7.20000000E-01  7.20000000E-01  8.50000000E-01
  7.90000000E-01  7.20000000E-01  7.20000000E-01  7.20000000E-01  7.20000000E-01
  8.50000000E-01  7.20000000E-01  7.20000000E-01  8.50000000E-01  7.20000000E-01
  7.20000000E-01  8.50000000E-01  8.50000000E-01  7.20000000E-01  8.50000000E-01
  7.20000000E-01  8.50000000E-01  7.20000000E-01  8.50000000E-01  8.50000000E-01
  8.50000000E-01  8.50000000E-01  8.50000000E-01  8.50000000E-01  8.50000000E-01
  8.50000000E-01  8.50000000E-01  8.50000000E-01  8.50000000E-01  8.50000000E-01
  8.50000000E-01  8.50000000E-01  8.50000000E-01  8.50000000E-01  8.50000000E-01
  8.50000000E-01  8.50000000E-01  8.50000000E-01  8.50000000E-01  8.50000000E-01
  8.50000000E-01  8.50000000E-01  8.50000000E-01  8.50000000E-01  8.50000000E-01
  7.20000000E-01  7.20000000E-01  8.50000000E-01  7.20000000E-01  7.20000000E-01
  7.20000000E-01  7.20000000E-01  7.20000000E-01  7.20000000E-01  8.50000000E-01
  7.90000000E-01  7.20000000E-01  7.20000000E-01  7.20000000E-01  7.20000000E-01
  8.50000000E-01  7.20000000E-01  7.20000000E-01  8.50000000E-01  7.20000000E-01
  7.20000000E-01  8.50000000E-01  8.50000000E-01  7.20000000E-01  8.50000000E-01
  7.20000000E-01  8.50000000E-01  7.20000000E-01  8.50000000E-01  8.50000000E-01
  8.50000000E-01  8.50000000E-01  8.50000000E-01  8.50000000E-01  8.50000000E-01
  8.50000000E-01  8.50000000E-01  8.50000000E-01  8.50000000E-01  8.50000000E-01
  8.50000000E-01  8.50000000E-01  8.50000000E-01  8.50000000E-01  8.50000000E-01
  8.50000000E-01  8.50000000E-01  8.50000000E-01  8.50000000E-01  8.50000000E-01
  8.50000000E-01  8.50000000E-01  8.50000000E-01  8.50000000E-01  8.50000000E-01
  7.20000000E-01  7.20000000E-01  8.50000000E-01  7.20000000E-01  7.20000000E-01
  7.20000000E-01  7.20000000E-01  7.20000000E-01  7.20000000E-01  8.50000000E-01
  7.90000000E-01  7.20000000E-01  7.20000000E-01  7.20000000E-01  7.20000000E-01
  8.50000000E-01  7.20000000E-01  7.20000000E-01  8.50000000E-01  7.20000000E-01
  7.20000000E-01  8.50000000E-01  8.50000000E-01  7.20000000E-01  8.50000000E-01
  7.20000000E-01  8.50000000E-01  7.20000000E-01  8.50000000E-01  8.50000000E-01
  8.50000000E-01  8.50000000E-01  8.50000000E-01  8.50000000E-01  8.50000000E-01
  8.50000000E-01  8.50000000E-01  8.50000000E-01  8.50000000E-01  8.50000000E-01
  8.50000000E-01  8.50000000E-01  8.50000000E-01  8.50000000E-01  8.50000000E-01
  8.50000000E-01  8.50000000E-01  8.50000000E-01  8.50000000E-01  8.50000000E-01
  8.50000000E-01  8.50000000E-01  8.50000000E-01  8.50000000E-01  8.50000000E-01
  7.20000000E-01  7.20000000E-01  8.50000000E-01  7.20000000E-01  7.20000000E-01
  7.20000000E-01  7.20000000E-01  7.20000000E-01  7.20000000E-01  8.50000000E-01
  7.90000000E-01  7.20000000E-01  7.20000000E-01  7.20000000E-01  7.20000000E-01
  8.50000000E-01  7.20000000E-01  7.20000000E-01  8.50000000E-01  7.20000000E-01
  7.20000000E-01  8.50000000E-01  8.50000000E-01  7.20000000E-01  8.50000000E-01
  7.20000000E-01  8.50000000E-01  7.20000000E-01  8.50000000E-01  8.50000000E-01
  8.50000000E-01  8.50000000E-01  8.50000000E-01  8.50000000E-01  8.50000000E-01
  8.50000000E-01  8.50000000E-01  8.50000000E-01  8.50000000E-01  8.50000000E-01
  8.50000000E-01  8.50000000E-01  8.50000000E-01  8.50000000E-01  8.50000000E-01
  8.50000000E-01  8.50000000E-01  8.50000000E-01  8.50000000E-01  8.50000000E-01
  8.50000000E-01  8.50000000E-01  8.50000000E-01  8.50000000E-01  8.50000000E-01
  7.20000000E-01  7.20000000E-01  8.50000000E-01  7.20000000E-01  7.20000000E-01
  7.20000000E-01  7.20000000E-01  7.20000000E-01  7.20000000E-01  8.50000000E-01
  7.90000000E-01  7.20000000E-01  7.20000000E-01  7.20000000E-01  7.20000000E-01
  8.50000000E-01  7.20000000E-01  7.20000000E-01  8.50000000E-01  7.20000000E-01
  7.20000000E-01  8.50000000E-01  8.50000000E-01  7.20000000E-01  8.50000000E-01
  7.20000000E-01  8.50000000E-01  7.20000000E-01  8.50000000E-01  8.50000000E-01
  8.50000000E-01  8.50000000E-01  8.50000000E-01  8.50000000E-01  8.50000000E-01
  8.50000000E-01  8.50000000E-01  8.50000000E-01  8.50000000E-01  8.50000000E-01
  8.50000000E-01  8.50000000E-01  8.50000000E-01  8.50000000E-01  8.50000000E-01
  8.50000000E-01  8.50000000E-01  8.50000000E-01  8.50000000E-01  8.50000000E-01
  8.50000000E-01  8.50000000E-01  8.50000000E-01  8.50000000E-01  8.50000000E-01
  7.20000000E-01  7.20000000E-01  8.50000000E-01  7.20000000E-01  7.20000000E-01
  7.20000000E-01  7.20000000E-01  7.20000000E-01  7.20000000E-01  8.50000000E-01
  7.90000000E-01  7.20000000E-01  7.20000000E-01  7.20000000E-01  7.20000000E-01
  8.50000000E-01  7.20000000E-01  7.20000000E-01  8.50000000E-01  7.20000000E-01
  7.20000000E-01  8.50000000E-01  8.50000000E-01  7.20000000E-01  8.50000000E-01
  7.20000000E-01  8.50000000E-01  7.20000000E-01  8.50000000E-01  8.50000000E-01
  8.50000000E-01  8.50000000E-01  8.50000000E-01  8.50000000E-01  8.50000000E-01
  8.50000000E-01  8.50000000E-01  8.50000000E-01  8.50000000E-01  8.50000000E-01
  8.50000000E-01  8.50000000E-01  8.50000000E-01  8.50000000E-01  8.50000000E-01
  8.50000000E-01  8.50000000E-01  8.50000000E-01  8.50000000E-01  8.50000000E-01
  8.50000000E-01  8.50000000E-01  8.50000000E-01  8.50000000E-01  8.50000000E-01
  7.20000000E-01  7.20000000E-01  8.50000000E-01  7.20000000E-01  7.20000000E-01
  7.20000000E-01  7.20000000E-01  7.20000000E-01  7.20000000E-01  8.50000000E-01
  7.90000000E-01  7.20000000E-01  7.20000000E-01  7.20000000E-01  7.20000000E-01
  8.50000000E-01  7.20000000E-01  7.20000000E-01  8.50000000E-01  7.20000000E-01
  7.20000000E-01  8.50000000E-01  8.50000000E-01  7.20000000E-01  8.50000000E-01
  7.20000000E-01  8.50000000E-01  7.20000000E-01  8.50000000E-01  8.50000000E-01
  8.50000000E-01  8.50000000E-01  8.50000000E-01  8.50000000E-01  8.50000000E-01
  8.50000000E-01  8.50000000E-01  8.50000000E-01  8.50000000E-01  8.50000000E-01
  8.50000000E-01  8.50000000E-01  8.50000000E-01  8.50000000E-01  8.50000000E-01
  8.50000000E-01  8.50000000E-01  8.50000000E-01  8.50000000E-01  8.50000000E-01
  8.50000000E-01  8.50000000E-01  8.50000000E-01  8.50000000E-01  8.50000000E-01
  7.20000000E-01  7.20000000E-01  8.50000000E-01  7.20000000E-01  7.20000000E-01
  7.20000000E-01  7.20000000E-01  7.20000000E-01  7.20000000E-01  8.50000000E-01
  7.90000000E-01  7.20000000E-01  7.20000000E-01  7.20000000E-01  7.20000000E-01
  8.50000000E-01  7.20000000E-01  7.20000000E-01  8.50000000E-01  7.20000000E-01
  7.20000000E-01  8.50000000E-01  8.50000000E-01  7.20000000E-01  8.50000000E-01
  7.20000000E-01  8.50000000E-01  7.20000000E-01  8.50000000E-01  8.50000000E-01
  8.50000000E-01  8.50000000E-01  8.50000000E-01  8.50000000E-01  8.50000000E-01
  8.50000000E-01  8.50000000E-01  8.50000000E-01  8.50000000E-01  8.50000000E-01
  8.50000000E-01  8.50000000E-01  8.50000000E-01  8.50000000E-01  8.50000000E-01
  8.50000000E-01  8.50000000E-01  8.50000000E-01  8.50000000E-01  8.50000000E-01
  8.50000000E-01  8.50000000E-01  8.50000000E-01  8.50000000E-01  7.20000000E-01
  8.50000000E-01  8.50000000E-01  7.20000000E-01  8.50000000E-01  8.50000000E-01
  8.50000000E-01  7.20000000E-01  7.20000000E-01  8.50000000E-01  7.20000000E-01
  7.20000000E-01  7.20000000E-01  7.20000000E-01  7.20000000E-01  7.20000000E-01
  8.50000000E-01  7.90000000E-01  7.20000000E-01  7.20000000E-01  7.20000000E-01
  7.20000000E-01  8.50000000E-01  7.20000000E-01  7.20000000E-01  8.50000000E-01
  7.20000000E-01  7.20000000E-01  8.50000000E-01  8.50000000E-01  7.20000000E-01
  8.50000000E-01  7.20000000E-01  8.50000000E-01  7.20000000E-01  8.50000000E-01
  8.50000000E-01  8.50000000E-01  8.50000000E-01  8.50000000E-01  8.50000000E-01
  8.50000000E-01  8.50000000E-01  8.50000000E-01  8.50000000E-01  8.50000000E-01
  8.50000000E-01  8.50000000E-01  8.50000000E-01  8.50000000E-01  8.50000000E-01
  8.50000000E-01  8.50000000E-01  8.50000000E-01  8.50000000E-01  8.50000000E-01
  8.50000000E-01  8.50000000E-01  8.50000000E-01  8.50000000E-01  8.50000000E-01
  8.50000000E-01  7.20000000E-01  7.20000000E-01  8.50000000E-01  7.20000000E-01
  7.20000000E-01  7.20000000E-01  7.20000000E-01  7.20000000E-01  7.20000000E-01
  8.50000000E-01  7.90000000E-01  7.20000000E-01  7.20000000E-01  7.20000000E-01
  7.20000000E-01  8.50000000E-01  7.20000000E-01  7.20000000E-01  8.50000000E-01
  7.20000000E-01  7.20000000E-01  8.50000000E-01  8.50000000E-01  7.20000000E-01
  8.50000000E-01  7.20000000E-01  8.50000000E-01  7.20000000E-01  8.50000000E-01
  8.50000000E-01  8.50000000E-01  8.50000000E-01  8.50000000E-01  8.50000000E-01
  8.50000000E-01  8.50000000E-01  8.50000000E-01  8.50000000E-01  8.50000000E-01
  8.50000000E-01  8.50000000E-01  8.50000000E-01  8.50000000E-01  8.50000000E-01
  8.50000000E-01  8.50000000E-01  8.50000000E-01  8.50000000E-01  8.50000000E-01
  8.50000000E-01  8.50000000E-01  8.50000000E-01  8.50000000E-01  8.50000000E-01
  8.50000000E-01  7.20000000E-01  7.20000000E-01  8.50000000E-01  7.20000000E-01
  7.20000000E-01  7.20000000E-01  7.20000000E-01  7.20000000E-01  7.20000000E-01
  8.50000000E-01  7.90000000E-01  7.20000000E-01  7.20000000E-01  7.20000000E-01
  7.20000000E-01  8.50000000E-01  7.20000000E-01  7.20000000E-01  8.50000000E-01
  7.20000000E-01  7.20000000E-01  8.50000000E-01  8.50000000E-01  7.20000000E-01
  8.50000000E-01  7.20000000E-01  8.50000000E-01  7.20000000E-01  8.50000000E-01
  8.50000000E-01  8.50000000E-01  8.50000000E-01  8.50000000E-01  8.50000000E-01
  8.50000000E-01  8.50000000E-01  8.50000000E-01  8.50000000E-01  8.50000000E-01
  8.50000000E-01  8.50000000E-01  8.50000000E-01  8.50000000E-01  8.50000000E-01
  8.50000000E-01  8.50000000E-01  8.50000000E-01  8.50000000E-01  8.50000000E-01
  8.50000000E-01  8.50000000E-01  8.50000000E-01  8.50000000E-01  8.50000000E-01
  8.50000000E-01  7.20000000E-01  7.20000000E-01  8.50000000E-01  7.20000000E-01
  7.20000000E-01  7.20000000E-01  7.20000000E-01  7.20000000E-01  7.20000000E-01
  8.50000000E-01  7.90000000E-01  7.20000000E-01  7.20000000E-01  7.20000000E-01
  7.20000000E-01  8.50000000E-01  7.20000000E-01  7.20000000E-01  8.50000000E-01
  7.20000000E-01  7.20000000E-01  8.50000000E-01  8.50000000E-01  7.20000000E-01
  8.50000000E-01  7.20000000E-01  8.50000000E-01  7.20000000E-01  8.50000000E-01
  8.50000000E-01  8.50000000E-01  8.50000000E-01  8.50000000E-01  8.50000000E-01
  8.50000000E-01  8.50000000E-01  8.50000000E-01  8.50000000E-01  8.50000000E-01
  8.50000000E-01  8.50000000E-01  8.50000000E-01  8.50000000E-01  8.50000000E-01
  8.50000000E-01  8.50000000E-01  8.50000000E-01  8.50000000E-01  8.50000000E-01
  8.50000000E-01  8.50000000E-01  8.50000000E-01  8.50000000E-01  8.50000000E-01
  8.50000000E-01  7.20000000E-01  7.20000000E-01  8.50000000E-01  7.20000000E-01
  7.20000000E-01  7.20000000E-01  7.20000000E-01  7.20000000E-01  7.20000000E-01
  8.50000000E-01  7.90000000E-01  7.20000000E-01  7.20000000E-01  7.20000000E-01
  7.20000000E-01  8.50000000E-01  7.20000000E-01  7.20000000E-01  8.50000000E-01
  7.20000000E-01  7.20000000E-01  8.50000000E-01  8.50000000E-01  7.20000000E-01
  8.50000000E-01  7.20000000E-01  8.50000000E-01  7.20000000E-01  8.50000000E-01
  8.50000000E-01  8.50000000E-01  8.50000000E-01  8.50000000E-01  8.50000000E-01
  8.50000000E-01  8.50000000E-01  8.50000000E-01  8.50000000E-01  8.50000000E-01
  8.50000000E-01  8.50000000E-01  8.50000000E-01  8.50000000E-01  8.50000000E-01
  8.50000000E-01  8.50000000E-01  8.50000000E-01  8.50000000E-01  8.50000000E-01
  8.50000000E-01  8.50000000E-01  8.50000000E-01  8.50000000E-01  8.50000000E-01
  8.50000000E-01  7.20000000E-01  7.20000000E-01  8.50000000E-01  7.20000000E-01
  7.20000000E-01  7.20000000E-01  7.20000000E-01  7.20000000E-01  7.20000000E-01
  8.50000000E-01  7.90000000E-01  7.20000000E-01  7.20000000E-01  7.20000000E-01
  7.20000000E-01  8.50000000E-01  7.20000000E-01  7.20000000E-01  8.50000000E-01
  7.20000000E-01  7.20000000E-01  8.50000000E-01  8.50000000E-01  7.20000000E-01
  8.50000000E-01  7.20000000E-01  8.50000000E-01  7.20000000E-01  8.50000000E-01
  8.50000000E-01  8.50000000E-01  8.50000000E-01  8.50000000E-01  8.50000000E-01
  8.50000000E-01  8.50000000E-01  8.50000000E-01  8.50000000E-01  8.50000000E-01
  8.50000000E-01  8.50000000E-01  8.50000000E-01  8.50000000E-01  8.50000000E-01
  8.50000000E-01  8.50000000E-01  8.50000000E-01  8.50000000E-01  8.50000000E-01
  8.50000000E-01  8.50000000E-01  8.50000000E-01  8.50000000E-01  8.50000000E-01
  8.50000000E-01  7.20000000E-01  7.20000000E-01  8.50000000E-01  7.20000000E-01
  7.20000000E-01  7.20000000E-01  7.20000000E-01  7.20000000E-01  7.20000000E-01
  8.50000000E-01  7.90000000E-01  7.20000000E-01  7.20000000E-01  7.20000000E-01
  7.20000000E-01  8.50000000E-01  7.20000000E-01  7.20000000E-01  8.50000000E-01
  7.20000000E-01  7.20000000E-01  8.50000000E-01  8.50000000E-01  7.20000000E-01
  8.50000000E-01  7.20000000E-01  8.50000000E-01  7.20000000E-01  8.50000000E-01
  8.50000000E-01  8.50000000E-01  8.50000000E-01  8.50000000E-01  8.50000000E-01
  8.50000000E-01  8.50000000E-01  8.50000000E-01  8.50000000E-01  8.50000000E-01
  8.50000000E-01  8.50000000E-01  8.50000000E-01  8.50000000E-01  8.50000000E-01
  8.50000000E-01  8.50000000E-01  8.50000000E-01  8.50000000E-01  8.50000000E-01
  8.50000000E-01  8.50000000E-01  8.50000000E-01  8.50000000E-01  8.50000000E-01
  8.50000000E-01  7.20000000E-01  7.20000000E-01  8.50000000E-01  7.20000000E-01
  7.20000000E-01  7.20000000E-01  7.20000000E-01  7.20000000E-01  7.20000000E-01
  8.50000000E-01  7.90000000E-01  7.20000000E-01  7.20000000E-01  7.20000000E-01
  7.20000000E-01  8.50000000E-01  7.20000000E-01  7.20000000E-01  8.50000000E-01
  7.20000000E-01  7.20000000E-01  8.50000000E-01  8.50000000E-01  7.20000000E-01
  8.50000000E-01  7.20000000E-01  8.50000000E-01  7.20000000E-01  8.50000000E-01
  8.50000000E-01  8.50000000E-01  8.50000000E-01  8.50000000E-01  8.50000000E-01
  8.50000000E-01  8.50000000E-01  8.50000000E-01  8.50000000E-01  8.50000000E-01
  8.50000000E-01  8.50000000E-01  8.50000000E-01  8.50000000E-01  8.50000000E-01
  8.50000000E-01  8.50000000E-01  8.50000000E-01  8.50000000E-01  8.50000000E-01
  8.50000000E-01  8.50000000E-01  8.50000000E-01  8.50000000E-01  8.50000000E-01
  8.50000000E-01  7.20000000E-01  7.20000000E-01  8.50000000E-01  7.20000000E-01
  7.20000000E-01  7.20000000E-01  7.20000000E-01  7.20000000E-01  7.20000000E-01
  8.50000000E-01  7.90000000E-01  7.20000000E-01  7.20000000E-01  7.20000000E-01
  7.20000000E-01  8.50000000E-01  7.20000000E-01  7.20000000E-01  8.50000000E-01
  7.20000000E-01  7.20000000E-01  8.50000000E-01  8.50000000E-01  7.20000000E-01
  8.50000000E-01  7.20000000E-01  8.50000000E-01  7.20000000E-01  8.50000000E-01
  8.50000000E-01  8.50000000E-01  8.50000000E-01  8.50000000E-01  8.50000000E-01
  8.50000000E-01  8.50000000E-01  8.50000000E-01  8.50000000E-01  8.50000000E-01
  8.50000000E-01  8.50000000E-01  8.50000000E-01  8.50000000E-01  8.50000000E-01
  8.50000000E-01  8.50000000E-01  8.50000000E-01  8.50000000E-01  8.50000000E-01
  8.50000000E-01  8.50000000E-01  8.50000000E-01  8.50000000E-01  8.50000000E-01
  8.50000000E-01  7.20000000E-01  7.20000000E-01  8.50000000E-01  7.20000000E-01
  7.20000000E-01  7.20000000E-01  7.20000000E-01  7.20000000E-01  7.20000000E-01
  8.50000000E-01  7.90000000E-01  7.20000000E-01  7.20000000E-01  7.20000000E-01
  7.20000000E-01  8.50000000E-01  7.20000000E-01  7.20000000E-01  8.50000000E-01
  7.20000000E-01  7.20000000E-01  8.50000000E-01  8.50000000E-01  7.20000000E-01
  8.50000000E-01  7.20000000E-01  8.50000000E-01  7.20000000E-01  8.50000000E-01
  8.50000000E-01  8.50000000E-01  8.50000000E-01  8.50000000E-01  8.50000000E-01
  8.50000000E-01  8.50000000E-01  8.50000000E-01  8.50000000E-01  8.50000000E-01
  8.50000000E-01  8.50000000E-01  8.50000000E-01  8.50000000E-01  8.50000000E-01
  8.50000000E-01  8.50000000E-01  8.50000000E-01  8.50000000E-01  8.50000000E-01
  8.50000000E-01  8.50000000E-01  8.50000000E-01  8.50000000E-01  8.50000000E-01
  7.20000000E-01  8.50000000E-01  8.50000000E-01  7.20000000E-01  8.50000000E-01
  8.50000000E-01  8.50000000E-01  7.20000000E-01  7.20000000E-01  8.50000000E-01
  7.20000000E-01  7.20000000E-01  7.20000000E-01  7.20000000E-01  7.20000000E-01
  7.20000000E-01  8.50000000E-01  7.90000000E-01  7.20000000E-01  7.20000000E-01
  7.20000000E-01  7.20000000E-01  8.50000000E-01  7.20000000E-01  7.20000000E-01
  8.50000000E-01  7.20000000E-01  7.20000000E-01  8.50000000E-01  8.50000000E-01
  7.20000000E-01  8.50000000E-01  7.20000000E-01  8.50000000E-01  7.20000000E-01
  8.50000000E-01  8.50000000E-01  8.50000000E-01  8.50000000E-01  8.50000000E-01
  8.50000000E-01  8.50000000E-01  8.50000000E-01  8.50000000E-01  8.50000000E-01
  8.50000000E-01  8.50000000E-01  8.50000000E-01  8.50000000E-01  8.50000000E-01
  8.50000000E-01  8.50000000E-01  8.50000000E-01  8.50000000E-01  8.50000000E-01
  8.50000000E-01  8.50000000E-01  8.50000000E-01  8.50000000E-01  8.50000000E-01
  8.50000000E-01  8.50000000E-01  7.20000000E-01  7.20000000E-01  8.50000000E-01
  7.20000000E-01  7.20000000E-01  7.20000000E-01  7.20000000E-01  7.20000000E-01
  7.20000000E-01  8.50000000E-01  7.90000000E-01  7.20000000E-01  7.20000000E-01
  7.20000000E-01  7.20000000E-01  8.50000000E-01  7.20000000E-01  7.20000000E-01
  8.50000000E-01  7.20000000E-01  7.20000000E-01  8.50000000E-01  8.50000000E-01
  7.20000000E-01  8.50000000E-01  7.20000000E-01  8.50000000E-01  7.20000000E-01
  8.50000000E-01  8.50000000E-01  8.50000000E-01  8.50000000E-01  8.50000000E-01
  8.50000000E-01  8.50000000E-01  8.50000000E-01  8.50000000E-01  8.50000000E-01
  8.50000000E-01  8.50000000E-01  8.50000000E-01  8.50000000E-01  8.50000000E-01
  8.50000000E-01  8.50000000E-01  8.50000000E-01  8.50000000E-01  8.50000000E-01
  8.50000000E-01  8.50000000E-01  8.50000000E-01  8.50000000E-01  8.50000000E-01
  8.50000000E-01  8.50000000E-01  7.20000000E-01  7.20000000E-01  8.50000000E-01
  7.20000000E-01  7.20000000E-01  7.20000000E-01  7.20000000E-01  7.20000000E-01
  7.20000000E-01  8.50000000E-01  7.90000000E-01  7.20000000E-01  7.20000000E-01
  7.20000000E-01  7.20000000E-01  8.50000000E-01  7.20000000E-01  7.20000000E-01
  8.50000000E-01  7.20000000E-01  7.20000000E-01  8.50000000E-01  8.50000000E-01
  7.20000000E-01  8.50000000E-01  7.20000000E-01  8.50000000E-01  7.20000000E-01
  8.50000000E-01  8.50000000E-01  8.50000000E-01  8.50000000E-01  8.50000000E-01
  8.50000000E-01  8.50000000E-01  8.50000000E-01  8.50000000E-01  8.50000000E-01
  8.50000000E-01  8.50000000E-01  8.50000000E-01  8.50000000E-01  8.50000000E-01
  8.50000000E-01  8.50000000E-01  8.50000000E-01  8.50000000E-01  8.50000000E-01
  8.50000000E-01  8.50000000E-01  8.50000000E-01  8.50000000E-01  8.50000000E-01
  8.50000000E-01  8.50000000E-01  7.20000000E-01  7.20000000E-01  8.50000000E-01
  7.20000000E-01  7.20000000E-01  7.20000000E-01  7.20000000E-01  7.20000000E-01
  7.20000000E-01  8.50000000E-01  7.90000000E-01  7.20000000E-01  7.20000000E-01
  7.20000000E-01  7.20000000E-01  8.50000000E-01  7.20000000E-01  7.20000000E-01
  8.50000000E-01  7.20000000E-01  7.20000000E-01  8.50000000E-01  8.50000000E-01
  7.20000000E-01  8.50000000E-01  7.20000000E-01  8.50000000E-01  7.20000000E-01
  8.50000000E-01  8.50000000E-01  8.50000000E-01  8.50000000E-01  8.50000000E-01
  8.50000000E-01  8.50000000E-01  8.50000000E-01  8.50000000E-01  8.50000000E-01
  8.50000000E-01  8.50000000E-01  8.50000000E-01  8.50000000E-01  8.50000000E-01
  8.50000000E-01  8.50000000E-01  8.50000000E-01  8.50000000E-01  8.50000000E-01
  8.50000000E-01  8.50000000E-01  8.50000000E-01  8.50000000E-01  8.50000000E-01
  8.50000000E-01  8.50000000E-01  7.20000000E-01  7.20000000E-01  8.50000000E-01
  7.20000000E-01  7.20000000E-01  7.20000000E-01  7.20000000E-01  7.20000000E-01
  7.20000000E-01  8.50000000E-01  7.90000000E-01  7.20000000E-01  7.20000000E-01
  7.20000000E-01  7.20000000E-01  8.50000000E-01  7.20000000E-01  7.20000000E-01
  8.50000000E-01  7.20000000E-01  7.20000000E-01  8.50000000E-01  8.50000000E-01
  7.20000000E-01  8.50000000E-01  7.20000000E-01  8.50000000E-01  7.20000000E-01
  8.50000000E-01  8.50000000E-01  8.50000000E-01  8.50000000E-01  8.50000000E-01
  8.50000000E-01  8.50000000E-01  8.50000000E-01  8.50000000E-01  8.50000000E-01
  8.50000000E-01  8.50000000E-01  8.50000000E-01  8.50000000E-01  8.50000000E-01
  8.50000000E-01  8.50000000E-01  8.50000000E-01  8.50000000E-01  8.50000000E-01
  8.50000000E-01  8.50000000E-01  8.50000000E-01  8.50000000E-01  8.50000000E-01
  8.50000000E-01  8.50000000E-01  7.20000000E-01  7.20000000E-01  8.50000000E-01
  7.20000000E-01  7.20000000E-01  7.20000000E-01  7.20000000E-01  7.20000000E-01
  7.20000000E-01  8.50000000E-01  7.90000000E-01  7.20000000E-01  7.20000000E-01
  7.20000000E-01  7.20000000E-01  8.50000000E-01  7.20000000E-01  7.20000000E-01
  8.50000000E-01  7.20000000E-01  7.20000000E-01  8.50000000E-01  8.50000000E-01
  7.20000000E-01  8.50000000E-01  7.20000000E-01  8.50000000E-01  7.20000000E-01
  8.50000000E-01  8.50000000E-01  8.50000000E-01  8.50000000E-01  8.50000000E-01
  8.50000000E-01  8.50000000E-01  8.50000000E-01  8.50000000E-01  8.50000000E-01
  8.50000000E-01  8.50000000E-01  8.50000000E-01  8.50000000E-01  8.50000000E-01
  8.50000000E-01  8.50000000E-01  8.50000000E-01  8.50000000E-01  8.50000000E-01
  8.50000000E-01  8.50000000E-01  8.50000000E-01  8.50000000E-01  8.50000000E-01
  8.50000000E-01  8.50000000E-01  7.20000000E-01  7.20000000E-01  8.50000000E-01
  7.20000000E-01  7.20000000E-01  7.20000000E-01  7.20000000E-01  7.20000000E-01
  7.20000000E-01  8.50000000E-01  7.90000000E-01  7.20000000E-01  7.20000000E-01
  7.20000000E-01  7.20000000E-01  8.50000000E-01  7.20000000E-01  7.20000000E-01
  8.50000000E-01  7.20000000E-01  7.20000000E-01  8.50000000E-01  8.50000000E-01
  7.20000000E-01  8.50000000E-01  7.20000000E-01  8.50000000E-01  7.20000000E-01
  8.50000000E-01  8.50000000E-01  8.50000000E-01  8.50000000E-01  8.50000000E-01
  8.50000000E-01  8.50000000E-01  8.50000000E-01  8.50000000E-01  8.50000000E-01
  8.50000000E-01  8.50000000E-01  8.50000000E-01  8.50000000E-01  8.50000000E-01
  8.50000000E-01  8.50000000E-01  8.50000000E-01  8.50000000E-01  8.50000000E-01
  8.50000000E-01  8.50000000E-01  8.50000000E-01  8.50000000E-01  8.50000000E-01
  8.50000000E-01  8.50000000E-01  7.20000000E-01  7.20000000E-01  8.50000000E-01
  7.20000000E-01  7.20000000E-01  7.20000000E-01  7.20000000E-01  7.20000000E-01
  7.20000000E-01  8.50000000E-01  7.90000000E-01  7.20000000E-01  7.20000000E-01
  7.20000000E-01  7.20000000E-01  8.50000000E-01  7.20000000E-01  7.20000000E-01
  8.50000000E-01  7.20000000E-01  7.20000000E-01  8.50000000E-01  8.50000000E-01
  7.20000000E-01  8.50000000E-01  7.20000000E-01  8.50000000E-01  7.20000000E-01
  8.50000000E-01  8.50000000E-01  8.50000000E-01  8.50000000E-01  8.50000000E-01
  8.50000000E-01  8.50000000E-01  8.50000000E-01  8.50000000E-01  8.50000000E-01
  8.50000000E-01  8.50000000E-01  8.50000000E-01  8.50000000E-01  8.50000000E-01
  8.50000000E-01  8.50000000E-01  8.50000000E-01  8.50000000E-01  8.50000000E-01
  8.50000000E-01  8.50000000E-01  8.50000000E-01  8.50000000E-01  8.50000000E-01
  8.50000000E-01  8.50000000E-01  7.20000000E-01  7.20000000E-01  8.50000000E-01
  7.20000000E-01  7.20000000E-01  7.20000000E-01  7.20000000E-01  7.20000000E-01
  7.20000000E-01  8.50000000E-01  7.90000000E-01  7.20000000E-01  7.20000000E-01
  7.20000000E-01  7.20000000E-01  8.50000000E-01  7.20000000E-01  7.20000000E-01
  8.50000000E-01  7.20000000E-01  7.20000000E-01  8.50000000E-01  8.50000000E-01
  7.20000000E-01  8.50000000E-01  7.20000000E-01  8.50000000E-01  7.20000000E-01
  8.50000000E-01  8.50000000E-01  8.50000000E-01  8.50000000E-01  8.50000000E-01
  8.50000000E-01  8.50000000E-01  8.50000000E-01  8.50000000E-01  8.50000000E-01
  8.50000000E-01  8.50000000E-01  8.50000000E-01  8.50000000E-01  8.50000000E-01
  8.50000000E-01  8.50000000E-01  8.50000000E-01  8.50000000E-01  8.50000000E-01
  8.50000000E-01  8.50000000E-01  8.50000000E-01  8.50000000E-01  8.50000000E-01
  8.50000000E-01  8.50000000E-01  7.20000000E-01  7.20000000E-01  8.50000000E-01
  7.20000000E-01  7.20000000E-01  7.20000000E-01  7.20000000E-01  7.20000000E-01
  7.20000000E-01  8.50000000E-01  7.90000000E-01  7.20000000E-01  7.20000000E-01
  7.20000000E-01  7.20000000E-01  8.50000000E-01  7.20000000E-01  7.20000000E-01
  8.50000000E-01  7.20000000E-01  7.20000000E-01  8.50000000E-01  8.50000000E-01
  7.20000000E-01  8.50000000E-01  7.20000000E-01  8.50000000E-01  7.20000000E-01
  8.50000000E-01  8.50000000E-01  8.50000000E-01  8.50000000E-01  8.50000000E-01
  8.50000000E-01  8.50000000E-01  8.50000000E-01  8.50000000E-01  8.50000000E-01
  8.50000000E-01  8.50000000E-01  8.50000000E-01  8.50000000E-01  8.50000000E-01
  8.50000000E-01  8.50000000E-01  8.50000000E-01  8.50000000E-01  8.50000000E-01
  8.50000000E-01  8.50000000E-01  8.50000000E-01  8.50000000E-01  8.50000000E-01
  8.50000000E-01  7.20000000E-01  8.50000000E-01  8.50000000E-01  8.50000000E-01
  8.50000000E-01  8.50000000E-01  8.50000000E-01  8.50000000E-01  8.50000000E-01
  8.50000000E-01  8.50000000E-01  8.50000000E-01  8.50000000E-01  8.50000000E-01
  8.50000000E-01  8.50000000E-01  8.50000000E-01  8.50000000E-01  8.50000000E-01
  8.50000000E-01  8.50000000E-01  8.50000000E-01  8.50000000E-01  8.50000000E-01
  8.50000000E-01  8.50000000E-01  8.50000000E-01  8.50000000E-01  8.50000000E-01
  8.50000000E-01  8.50000000E-01  8.50000000E-01  8.50000000E-01  8.50000000E-01
  8.50000000E-01  8.50000000E-01  8.50000000E-01  8.50000000E-01  8.50000000E-01
  8.50000000E-01  8.50000000E-01  8.50000000E-01  8.50000000E-01  8.50000000E-01
  8.50000000E-01  8.50000000E-01  8.50000000E-01  8.50000000E-01  8.50000000E-01
  8.50000000E-01  8.50000000E-01  8.50000000E-01  8.50000000E-01  8.50000000E-01
  8.50000000E-01  8.50000000E-01  8.50000000E-01  8.50000000E-01  8.50000000E-01
  8.50000000E-01  8.50000000E-01  8.50000000E-01  8.50000000E-01  8.50000000E-01
  8.50000000E-01  8.50000000E-01  8.50000000E-01  8.50000000E-01  8.50000000E-01
  8.50000000E-01  8.50000000E-01  8.50000000E-01  8.50000000E-01  8.50000000E-01
  8.50000000E-01  8.50000000E-01  8.50000000E-01  8.50000000E-01  8.50000000E-01
  8.50000000E-01  8.50000000E-01  8.50000000E-01  8.50000000E-01  8.50000000E-01
  8.50000000E-01  8.50000000E-01  8.50000000E-01  8.50000000E-01  8.50000000E-01
  8.50000000E-01  8.50000000E-01  8.50000000E-01  8.50000000E-01  8.50000000E-01
  8.50000000E-01  8.50000000E-01  8.50000000E-01  8.50000000E-01  8.50000000E-01
  8.50000000E-01  8.50000000E-01  8.50000000E-01  8.50000000E-01  8.50000000E-01
  8.50000000E-01  8.50000000E-01  8.50000000E-01  8.50000000E-01  8.50000000E-01
  8.50000000E-01  8.50000000E-01  8.50000000E-01  8.50000000E-01  8.50000000E-01
  8.50000000E-01  8.50000000E-01  8.50000000E-01  8.50000000E-01  8.50000000E-01
  8.50000000E-01  8.50000000E-01  8.50000000E-01  8.50000000E-01  8.50000000E-01
  8.50000000E-01  8.50000000E-01  8.50000000E-01  8.50000000E-01  8.50000000E-01
  8.50000000E-01  8.50000000E-01  8.50000000E-01  8.50000000E-01  8.50000000E-01
  8.50000000E-01  8.50000000E-01  8.50000000E-01  8.50000000E-01  8.50000000E-01
  8.50000000E-01  8.50000000E-01  8.50000000E-01  8.50000000E-01  8.50000000E-01
  8.50000000E-01  8.50000000E-01  8.50000000E-01  8.50000000E-01  8.50000000E-01
  8.50000000E-01  8.50000000E-01  8.50000000E-01  8.50000000E-01  8.50000000E-01
  8.50000000E-01  8.50000000E-01  8.50000000E-01  8.50000000E-01  8.50000000E-01
  8.50000000E-01  8.50000000E-01  8.50000000E-01  8.50000000E-01  8.50000000E-01
  8.50000000E-01  8.50000000E-01  8.50000000E-01  8.50000000E-01  8.50000000E-01
  8.50000000E-01  8.50000000E-01  8.50000000E-01  8.50000000E-01  8.50000000E-01
  8.50000000E-01  8.50000000E-01  8.50000000E-01  8.50000000E-01  8.50000000E-01
  8.50000000E-01  8.50000000E-01  8.50000000E-01  8.50000000E-01  8.50000000E-01
  8.50000000E-01  8.50000000E-01  8.50000000E-01  8.50000000E-01  8.50000000E-01
  8.50000000E-01  8.50000000E-01  8.50000000E-01  8.50000000E-01  8.50000000E-01
  8.50000000E-01  8.50000000E-01  8.50000000E-01  8.50000000E-01  8.50000000E-01
  8.50000000E-01  8.50000000E-01  8.50000000E-01  8.50000000E-01  8.50000000E-01
  8.50000000E-01  8.50000000E-01  8.50000000E-01  8.50000000E-01  8.50000000E-01
  8.50000000E-01  8.50000000E-01  8.50000000E-01  8.50000000E-01  8.50000000E-01
  8.50000000E-01  8.50000000E-01  8.50000000E-01  8.50000000E-01  8.50000000E-01
  8.50000000E-01  8.50000000E-01  8.50000000E-01  8.50000000E-01  8.50000000E-01
  8.50000000E-01  8.50000000E-01  8.50000000E-01  8.50000000E-01  8.50000000E-01
  8.50000000E-01  8.50000000E-01  8.50000000E-01  8.50000000E-01  8.50000000E-01
  8.50000000E-01  8.50000000E-01  8.50000000E-01  8.50000000E-01  8.50000000E-01
  8.50000000E-01  8.50000000E-01  8.50000000E-01  8.50000000E-01  8.50000000E-01
  8.50000000E-01  8.50000000E-01  8.50000000E-01  8.50000000E-01  8.50000000E-01
  8.50000000E-01  8.50000000E-01  8.50000000E-01  8.50000000E-01  8.50000000E-01
  8.50000000E-01  8.50000000E-01  8.50000000E-01  8.50000000E-01  8.50000000E-01
  8.50000000E-01  8.50000000E-01  8.50000000E-01  8.50000000E-01  8.50000000E-01
  8.50000000E-01  8.50000000E-01  8.50000000E-01  8.50000000E-01  8.50000000E-01
  8.50000000E-01  8.50000000E-01  8.50000000E-01  8.50000000E-01  8.50000000E-01
  8.50000000E-01  8.50000000E-01  8.50000000E-01  8.50000000E-01  8.50000000E-01
  8.50000000E-01  8.50000000E-01  8.50000000E-01  8.50000000E-01  8.50000000E-01
  8.50000000E-01  8.50000000E-01  8.50000000E-01  8.50000000E-01  8.50000000E-01
  8.50000000E-01  8.50000000E-01  8.50000000E-01  8.50000000E-01  8.50000000E-01
  8.50000000E-01  8.50000000E-01  8.50000000E-01  8.50000000E-01  8.50000000E-01
  8.50000000E-01  8.50000000E-01  8.50000000E-01  8.50000000E-01  8.50000000E-01
  8.50000000E-01  8.50000000E-01  8.50000000E-01  8.50000000E-01  8.50000000E-01
  8.50000000E-01  8.50000000E-01  8.50000000E-01  8.50000000E-01  8.50000000E-01
  8.50000000E-01  8.50000000E-01  8.50000000E-01  8.50000000E-01  8.50000000E-01
  8.50000000E-01  8.50000000E-01  8.50000000E-01  8.50000000E-01  8.50000000E-01
  8.50000000E-01  8.50000000E-01  8.50000000E-01  8.50000000E-01  8.50000000E-01
  8.50000000E-01  8.50000000E-01  8.50000000E-01  8.50000000E-01  8.50000000E-01
  8.50000000E-01  8.50000000E-01  8.50000000E-01  8.50000000E-01  8.50000000E-01
  8.50000000E-01  8.50000000E-01  8.50000000E-01  8.50000000E-01  8.50000000E-01
  8.50000000E-01  8.50000000E-01  8.50000000E-01  8.50000000E-01  8.50000000E-01
  8.50000000E-01  8.50000000E-01  8.50000000E-01  8.50000000E-01  8.50000000E-01
  8.50000000E-01  8.50000000E-01  8.50000000E-01  8.50000000E-01  8.50000000E-01
  8.50000000E-01  8.50000000E-01  8.50000000E-01  8.50000000E-01  8.50000000E-01
  8.50000000E-01  8.50000000E-01  8.50000000E-01  8.50000000E-01  8.50000000E-01
  8.50000000E-01  8.50000000E-01  8.50000000E-01  8.50000000E-01  8.50000000E-01
  8.50000000E-01  8.50000000E-01  8.50000000E-01  8.50000000E-01  8.50000000E-01
  8.50000000E-01  8.50000000E-01  8.50000000E-01  8.50000000E-01  8.50000000E-01
  8.50000000E-01  8.50000000E-01  8.50000000E-01  8.50000000E-01  8.50000000E-01
  8.50000000E-01  8.50000000E-01  8.50000000E-01  8.50000000E-01  8.50000000E-01
  8.50000000E-01  8.50000000E-01  8.50000000E-01  8.50000000E-01  8.50000000E-01
  8.50000000E-01  8.50000000E-01  8.50000000E-01  8.50000000E-01  8.50000000E-01
  8.50000000E-01  8.50000000E-01  8.50000000E-01  8.50000000E-01  8.50000000E-01
  8.50000000E-01  8.50000000E-01  8.50000000E-01  8.50000000E-01  8.50000000E-01
  8.50000000E-01  8.50000000E-01  8.50000000E-01  8.50000000E-01  8.50000000E-01
  8.50000000E-01  8.50000000E-01  8.50000000E-01  8.50000000E-01  8.50000000E-01
  8.50000000E-01  8.50000000E-01  8.50000000E-01  8.50000000E-01  8.50000000E-01
  8.50000000E-01  8.50000000E-01  8.50000000E-01  8.50000000E-01  8.50000000E-01
  8.50000000E-01  8.50000000E-01  8.50000000E-01  8.50000000E-01  8.50000000E-01
  8.50000000E-01  8.50000000E-01  8.50000000E-01  8.50000000E-01  8.50000000E-01
  8.50000000E-01  8.50000000E-01  8.50000000E-01  8.50000000E-01  8.50000000E-01
  8.50000000E-01  8.50000000E-01  8.50000000E-01  8.50000000E-01  8.50000000E-01
  8.50000000E-01  8.50000000E-01  8.50000000E-01  8.50000000E-01  8.50000000E-01
  8.50000000E-01  8.50000000E-01  8.50000000E-01  8.50000000E-01  8.50000000E-01
  8.50000000E-01  8.50000000E-01  8.50000000E-01  8.50000000E-01  8.50000000E-01
  8.50000000E-01  8.50000000E-01  8.50000000E-01  8.50000000E-01  8.50000000E-01
  8.50000000E-01  8.50000000E-01  8.50000000E-01  8.50000000E-01  8.50000000E-01
  8.50000000E-01  8.50000000E-01  8.50000000E-01  8.50000000E-01  8.50000000E-01
  8.50000000E-01  8.50000000E-01  8.50000000E-01  8.50000000E-01  8.50000000E-01
  8.50000000E-01  8.50000000E-01  8.50000000E-01  8.50000000E-01  8.50000000E-01
  8.50000000E-01  8.50000000E-01  8.50000000E-01  8.50000000E-01  8.50000000E-01
  8.50000000E-01  8.50000000E-01  8.50000000E-01  8.50000000E-01  8.50000000E-01
  8.50000000E-01  8.50000000E-01  8.50000000E-01  8.50000000E-01  8.50000000E-01
  8.50000000E-01  8.50000000E-01  8.50000000E-01  8.50000000E-01  8.50000000E-01
  8.50000000E-01  8.50000000E-01  8.50000000E-01  8.50000000E-01  8.50000000E-01
  8.50000000E-01  8.50000000E-01  8.50000000E-01  8.50000000E-01  8.50000000E-01
  8.50000000E-01  8.50000000E-01  8.50000000E-01  8.50000000E-01  8.50000000E-01
  8.50000000E-01  8.50000000E-01  8.50000000E-01  8.50000000E-01  8.50000000E-01
  8.50000000E-01  8.50000000E-01  8.50000000E-01  8.50000000E-01  8.50000000E-01
  8.50000000E-01  8.50000000E-01  8.50000000E-01  8.50000000E-01  8.50000000E-01
  8.50000000E-01  8.50000000E-01  8.50000000E-01  8.50000000E-01  8.50000000E-01
  8.50000000E-01  8.50000000E-01  8.50000000E-01  8.50000000E-01  8.50000000E-01
  8.50000000E-01  8.50000000E-01  8.50000000E-01  8.50000000E-01  8.50000000E-01
  8.50000000E-01  8.50000000E-01  8.50000000E-01  8.50000000E-01  8.50000000E-01
  8.50000000E-01  8.50000000E-01  8.50000000E-01  8.50000000E-01  8.50000000E-01
  8.50000000E-01  8.50000000E-01  8.50000000E-01  8.50000000E-01  8.50000000E-01
  8.50000000E-01  8.50000000E-01  8.50000000E-01  8.50000000E-01  8.50000000E-01
  8.50000000E-01  8.50000000E-01  8.50000000E-01  8.50000000E-01  8.50000000E-01
  8.50000000E-01  8.50000000E-01  8.50000000E-01  8.50000000E-01  8.50000000E-01
  8.50000000E-01  8.50000000E-01  8.50000000E-01  8.50000000E-01  8.50000000E-01
  8.50000000E-01  8.50000000E-01  8.50000000E-01  8.50000000E-01  8.50000000E-01
  8.50000000E-01  8.50000000E-01  8.50000000E-01  8.50000000E-01  8.50000000E-01
  8.50000000E-01  8.50000000E-01  8.50000000E-01  8.50000000E-01  8.50000000E-01
  8.50000000E-01  8.50000000E-01  8.50000000E-01  8.50000000E-01  8.50000000E-01
  8.50000000E-01  8.50000000E-01  8.50000000E-01  8.50000000E-01  8.50000000E-01
  8.50000000E-01  8.50000000E-01  8.50000000E-01  8.50000000E-01  8.50000000E-01
  8.50000000E-01  8.50000000E-01  8.50000000E-01  8.50000000E-01  8.50000000E-01
  8.50000000E-01  8.50000000E-01  8.50000000E-01  8.50000000E-01  8.50000000E-01
  8.50000000E-01  8.50000000E-01  8.50000000E-01  8.50000000E-01  8.50000000E-01
  8.50000000E-01  8.50000000E-01  8.50000000E-01  8.50000000E-01  8.50000000E-01
  8.50000000E-01  8.50000000E-01  8.50000000E-01  8.50000000E-01  8.50000000E-01
  8.50000000E-01  8.50000000E-01  8.50000000E-01  8.50000000E-01  8.50000000E-01
  8.50000000E-01  8.50000000E-01  8.50000000E-01  8.50000000E-01  8.50000000E-01
  8.50000000E-01  8.50000000E-01  8.50000000E-01  8.50000000E-01  8.50000000E-01
  8.50000000E-01  8.50000000E-01  8.50000000E-01  8.50000000E-01  8.50000000E-01
  8.50000000E-01  8.50000000E-01  8.50000000E-01  8.50000000E-01  8.50000000E-01
  8.50000000E-01  8.50000000E-01  8.50000000E-01  8.50000000E-01  8.50000000E-01
  8.50000000E-01  8.50000000E-01  8.50000000E-01  8.50000000E-01  8.50000000E-01
  8.50000000E-01  8.50000000E-01  8.50000000E-01  8.50000000E-01  8.50000000E-01
  8.50000000E-01  8.50000000E-01  8.50000000E-01  8.50000000E-01  8.50000000E-01
  8.50000000E-01  8.50000000E-01  8.50000000E-01  8.50000000E-01  8.50000000E-01
  8.50000000E-01  8.50000000E-01  8.50000000E-01  8.50000000E-01  8.50000000E-01
  8.50000000E-01  8.50000000E-01  8.50000000E-01  8.50000000E-01  8.50000000E-01
  8.50000000E-01  8.50000000E-01  8.50000000E-01  8.50000000E-01  8.50000000E-01
  8.50000000E-01  8.50000000E-01  8.50000000E-01  8.50000000E-01  8.50000000E-01
  8.50000000E-01  8.50000000E-01  8.50000000E-01  8.50000000E-01  8.50000000E-01
  8.50000000E-01  8.50000000E-01  8.50000000E-01  8.50000000E-01  8.50000000E-01
  8.50000000E-01  8.50000000E-01  8.50000000E-01  8.50000000E-01  8.50000000E-01
  8.50000000E-01  8.50000000E-01  8.50000000E-01  8.50000000E-01  8.50000000E-01
  8.50000000E-01  8.50000000E-01  8.50000000E-01  8.50000000E-01  8.50000000E-01
  8.50000000E-01  8.50000000E-01  8.50000000E-01  8.50000000E-01  8.50000000E-01
  8.50000000E-01  8.50000000E-01  8.50000000E-01  8.50000000E-01  8.50000000E-01
  8.50000000E-01  8.50000000E-01  8.50000000E-01  8.50000000E-01  8.50000000E-01
  8.50000000E-01  8.50000000E-01  8.50000000E-01  8.50000000E-01  8.50000000E-01
  8.50000000E-01  8.50000000E-01  8.50000000E-01  8.50000000E-01  8.50000000E-01
  8.50000000E-01  8.50000000E-01  8.50000000E-01  8.50000000E-01  8.50000000E-01
  8.50000000E-01  8.50000000E-01  8.50000000E-01  8.50000000E-01  8.50000000E-01
  8.50000000E-01  8.50000000E-01  8.50000000E-01  8.50000000E-01  8.50000000E-01
  8.50000000E-01  8.50000000E-01  8.50000000E-01  8.50000000E-01  8.50000000E-01
  8.50000000E-01  8.50000000E-01  8.50000000E-01  8.50000000E-01  8.50000000E-01
  8.50000000E-01  8.50000000E-01  8.50000000E-01  8.50000000E-01  8.50000000E-01
  8.50000000E-01  8.50000000E-01  8.50000000E-01  8.50000000E-01  8.50000000E-01
  8.50000000E-01  8.50000000E-01  8.50000000E-01  8.50000000E-01  8.50000000E-01
  8.50000000E-01  8.50000000E-01  8.50000000E-01  8.50000000E-01  8.50000000E-01
  8.50000000E-01  8.50000000E-01  8.50000000E-01  8.50000000E-01  8.50000000E-01
  8.50000000E-01  8.50000000E-01  8.50000000E-01  8.50000000E-01  8.50000000E-01
  8.50000000E-01  8.50000000E-01  8.50000000E-01  8.50000000E-01  8.50000000E-01
  8.50000000E-01  8.50000000E-01  8.50000000E-01  8.50000000E-01  8.50000000E-01
  8.50000000E-01  8.50000000E-01  8.50000000E-01  8.50000000E-01  8.50000000E-01
  8.50000000E-01  8.50000000E-01  8.50000000E-01  8.50000000E-01  8.50000000E-01
  8.50000000E-01  8.50000000E-01  8.50000000E-01  8.50000000E-01  8.50000000E-01
  8.50000000E-01  8.50000000E-01  8.50000000E-01  8.50000000E-01  8.50000000E-01
  8.50000000E-01  8.50000000E-01  8.50000000E-01  8.50000000E-01  8.50000000E-01
  8.50000000E-01  8.50000000E-01  8.50000000E-01  8.50000000E-01  8.50000000E-01
  8.50000000E-01  8.50000000E-01  8.50000000E-01  8.50000000E-01  8.50000000E-01
  8.50000000E-01  8.50000000E-01  8.50000000E-01  8.50000000E-01  8.50000000E-01
  8.50000000E-01  8.50000000E-01  8.50000000E-01  8.50000000E-01  8.50000000E-01
  8.50000000E-01  8.50000000E-01  8.50000000E-01  8.50000000E-01  8.50000000E-01
  8.50000000E-01  8.50000000E-01  8.50000000E-01  8.50000000E-01  8.50000000E-01
  8.50000000E-01  8.50000000E-01  8.50000000E-01  8.50000000E-01  8.50000000E-01
  8.50000000E-01  8.50000000E-01  8.50000000E-01  8.50000000E-01  8.50000000E-01
  8.50000000E-01  8.50000000E-01  8.50000000E-01  8.50000000E-01  8.50000000E-01
  8.50000000E-01  8.50000000E-01  8.50000000E-01  8.50000000E-01  8.50000000E-01
  8.50000000E-01  8.50000000E-01  8.50000000E-01  8.50000000E-01  8.50000000E-01
  8.50000000E-01  8.50000000E-01  8.50000000E-01  8.50000000E-01  8.50000000E-01
  8.50000000E-01  8.50000000E-01  8.50000000E-01  8.50000000E-01  8.50000000E-01
  8.50000000E-01  8.50000000E-01  8.50000000E-01  8.50000000E-01  8.50000000E-01
  8.50000000E-01  8.50000000E-01  8.50000000E-01  8.50000000E-01  8.50000000E-01
  8.50000000E-01  8.50000000E-01  8.50000000E-01  8.50000000E-01  8.50000000E-01
  8.50000000E-01  8.50000000E-01  8.50000000E-01  8.50000000E-01  8.50000000E-01
  8.50000000E-01  8.50000000E-01  8.50000000E-01  8.50000000E-01  8.50000000E-01
  8.50000000E-01  8.50000000E-01  8.50000000E-01  8.50000000E-01  8.50000000E-01
  8.50000000E-01  8.50000000E-01  8.50000000E-01  8.50000000E-01  8.50000000E-01
  8.50000000E-01  8.50000000E-01  8.50000000E-01  8.50000000E-01  8.50000000E-01
  8.50000000E-01  8.50000000E-01  8.50000000E-01  8.50000000E-01  8.50000000E-01
  8.50000000E-01  8.50000000E-01  8.50000000E-01  8.50000000E-01  8.50000000E-01
  8.50000000E-01  8.50000000E-01  8.50000000E-01  8.50000000E-01  8.50000000E-01
  8.50000000E-01  8.50000000E-01  8.50000000E-01  8.50000000E-01  8.50000000E-01
  8.50000000E-01  8.50000000E-01  8.50000000E-01  8.50000000E-01  8.50000000E-01
  8.50000000E-01  8.50000000E-01  8.50000000E-01  8.50000000E-01  8.50000000E-01
  8.50000000E-01  8.50000000E-01  8.50000000E-01  8.50000000E-01  8.50000000E-01
  8.50000000E-01  8.50000000E-01  8.50000000E-01  8.50000000E-01  8.50000000E-01
  8.50000000E-01  8.50000000E-01  8.50000000E-01  8.50000000E-01  8.50000000E-01
  8.50000000E-01  8.50000000E-01  8.50000000E-01  8.50000000E-01  8.50000000E-01
  8.50000000E-01  8.50000000E-01  8.50000000E-01  8.50000000E-01  8.50000000E-01
  8.50000000E-01  8.50000000E-01  8.50000000E-01  8.50000000E-01  8.50000000E-01
  8.50000000E-01  8.50000000E-01  8.50000000E-01  8.50000000E-01  8.50000000E-01
  8.50000000E-01  8.50000000E-01  8.50000000E-01  8.50000000E-01  8.50000000E-01
  8.50000000E-01  8.50000000E-01  8.50000000E-01  8.50000000E-01  8.50000000E-01
  8.50000000E-01  8.50000000E-01  8.50000000E-01  8.50000000E-01  8.50000000E-01
  8.50000000E-01  8.50000000E-01  8.50000000E-01  8.50000000E-01  8.50000000E-01
  8.50000000E-01  8.50000000E-01  8.50000000E-01  8.50000000E-01  8.50000000E-01
  8.50000000E-01  8.50000000E-01  8.50000000E-01  8.50000000E-01  8.50000000E-01
  8.50000000E-01  8.50000000E-01  8.50000000E-01  8.50000000E-01  8.50000000E-01
  8.50000000E-01  8.50000000E-01  8.50000000E-01  8.50000000E-01  8.50000000E-01
  8.50000000E-01  8.50000000E-01  8.50000000E-01  8.50000000E-01  8.50000000E-01
  8.50000000E-01  8.50000000E-01  8.50000000E-01  8.50000000E-01  8.50000000E-01
  8.50000000E-01  8.50000000E-01  8.50000000E-01  8.50000000E-01  8.50000000E-01
  8.50000000E-01  8.50000000E-01  8.50000000E-01  8.50000000E-01  8.50000000E-01
  8.50000000E-01  8.50000000E-01  8.50000000E-01  8.50000000E-01  8.50000000E-01
  8.50000000E-01  8.50000000E-01  8.50000000E-01  8.50000000E-01  8.50000000E-01
  8.50000000E-01  8.50000000E-01  8.50000000E-01  8.50000000E-01  8.50000000E-01
  8.50000000E-01  8.50000000E-01  8.50000000E-01  8.50000000E-01  8.50000000E-01
  8.50000000E-01  8.50000000E-01  8.50000000E-01  8.50000000E-01  8.50000000E-01
  8.50000000E-01  8.50000000E-01  8.50000000E-01  8.50000000E-01  8.50000000E-01
  8.50000000E-01  8.50000000E-01  8.50000000E-01  8.50000000E-01  8.50000000E-01
  8.50000000E-01  8.50000000E-01  8.50000000E-01  8.50000000E-01  8.50000000E-01
  8.50000000E-01  8.50000000E-01  8.50000000E-01  8.50000000E-01  8.50000000E-01
  8.50000000E-01  8.50000000E-01  8.50000000E-01  8.50000000E-01  8.50000000E-01
  8.50000000E-01  8.50000000E-01  8.50000000E-01  8.50000000E-01  8.50000000E-01
  8.50000000E-01  8.50000000E-01  8.50000000E-01  8.50000000E-01  8.50000000E-01
  8.50000000E-01  8.50000000E-01  8.50000000E-01  8.50000000E-01  8.50000000E-01
  8.50000000E-01  8.50000000E-01  8.50000000E-01  8.50000000E-01  8.50000000E-01
  8.50000000E-01  8.50000000E-01  8.50000000E-01  8.50000000E-01  8.50000000E-01
  8.50000000E-01  8.50000000E-01  8.50000000E-01  8.50000000E-01  8.50000000E-01
  8.50000000E-01  8.50000000E-01  8.50000000E-01  8.50000000E-01  8.50000000E-01
  8.50000000E-01  8.50000000E-01  8.50000000E-01  8.50000000E-01  8.50000000E-01
  8.50000000E-01  8.50000000E-01  8.50000000E-01  8.50000000E-01  8.50000000E-01
  8.50000000E-01  8.50000000E-01  8.50000000E-01  8.50000000E-01  8.50000000E-01
  8.50000000E-01  8.50000000E-01  8.50000000E-01  8.50000000E-01  8.50000000E-01
  8.50000000E-01  8.50000000E-01  8.50000000E-01  8.50000000E-01  8.50000000E-01
  8.50000000E-01  8.50000000E-01  8.50000000E-01  8.50000000E-01  8.50000000E-01
  8.50000000E-01  8.50000000E-01  8.50000000E-01  8.50000000E-01  8.50000000E-01
  8.50000000E-01  8.50000000E-01  8.50000000E-01  8.50000000E-01  8.50000000E-01
  8.50000000E-01  8.50000000E-01  8.50000000E-01  8.50000000E-01  8.50000000E-01
  8.50000000E-01  8.50000000E-01  8.50000000E-01  8.50000000E-01  8.50000000E-01
  8.50000000E-01  8.50000000E-01  8.50000000E-01  8.50000000E-01  8.50000000E-01
  8.50000000E-01  8.50000000E-01  8.50000000E-01  8.50000000E-01  8.50000000E-01
  8.50000000E-01  8.50000000E-01  8.50000000E-01  8.50000000E-01  8.50000000E-01
  8.50000000E-01  8.50000000E-01  8.50000000E-01  8.50000000E-01  8.50000000E-01
  8.50000000E-01  8.50000000E-01  8.50000000E-01  8.50000000E-01  8.50000000E-01
  8.50000000E-01  8.50000000E-01  8.50000000E-01  8.50000000E-01  8.50000000E-01
  8.50000000E-01  8.50000000E-01  8.50000000E-01  8.50000000E-01  8.50000000E-01
  8.50000000E-01  8.50000000E-01  8.50000000E-01  8.50000000E-01  8.50000000E-01
  8.50000000E-01  8.50000000E-01  8.50000000E-01  8.50000000E-01  8.50000000E-01
  8.50000000E-01  8.50000000E-01  8.50000000E-01  8.50000000E-01  8.50000000E-01
  8.50000000E-01  8.50000000E-01  8.50000000E-01  8.50000000E-01  8.50000000E-01
  8.50000000E-01  8.50000000E-01  8.50000000E-01  8.50000000E-01  8.50000000E-01
  8.50000000E-01  8.50000000E-01  8.50000000E-01  8.50000000E-01  8.50000000E-01
  8.50000000E-01  8.50000000E-01  8.50000000E-01  8.50000000E-01  8.50000000E-01
  8.50000000E-01  8.50000000E-01  8.50000000E-01  8.50000000E-01  8.50000000E-01
  8.50000000E-01  8.50000000E-01  8.50000000E-01  8.50000000E-01  8.50000000E-01
  8.50000000E-01  8.50000000E-01  8.50000000E-01  8.50000000E-01  8.50000000E-01
  8.50000000E-01  8.50000000E-01  8.50000000E-01  8.50000000E-01  8.50000000E-01
  8.50000000E-01  8.50000000E-01  8.50000000E-01  8.50000000E-01  8.50000000E-01
  8.50000000E-01  8.50000000E-01  8.50000000E-01  8.50000000E-01  8.50000000E-01
  8.50000000E-01  8.50000000E-01  8.50000000E-01  8.50000000E-01  8.50000000E-01
  8.50000000E-01  8.50000000E-01  8.50000000E-01  8.50000000E-01  8.50000000E-01
  8.50000000E-01  8.50000000E-01  8.50000000E-01  8.50000000E-01  8.50000000E-01
  8.50000000E-01  8.50000000E-01  8.50000000E-01  8.50000000E-01  8.50000000E-01
  8.50000000E-01  8.50000000E-01  8.50000000E-01  8.50000000E-01  8.50000000E-01
  8.50000000E-01  8.50000000E-01  8.50000000E-01  8.50000000E-01  8.50000000E-01
  8.50000000E-01  8.50000000E-01  8.50000000E-01  8.50000000E-01  8.50000000E-01
  8.50000000E-01  8.50000000E-01  8.50000000E-01  8.50000000E-01  8.50000000E-01
  8.50000000E-01  8.50000000E-01  8.50000000E-01  8.50000000E-01  8.50000000E-01
  8.50000000E-01  8.50000000E-01  8.50000000E-01  8.50000000E-01  8.50000000E-01
  8.50000000E-01  8.50000000E-01  8.50000000E-01  8.50000000E-01  8.50000000E-01
  8.50000000E-01  8.50000000E-01  8.50000000E-01  8.50000000E-01  8.50000000E-01
  8.50000000E-01  8.50000000E-01  8.50000000E-01  8.50000000E-01  8.50000000E-01
  8.50000000E-01  8.50000000E-01  8.50000000E-01  8.50000000E-01  8.50000000E-01
  8.50000000E-01  8.50000000E-01  8.50000000E-01  8.50000000E-01  8.50000000E-01
  8.50000000E-01  8.50000000E-01  8.50000000E-01  8.50000000E-01  8.50000000E-01
  8.50000000E-01  8.50000000E-01  8.50000000E-01  8.50000000E-01  8.50000000E-01
  8.50000000E-01  8.50000000E-01  8.50000000E-01  8.50000000E-01  8.50000000E-01
  8.50000000E-01  8.50000000E-01  8.50000000E-01  8.50000000E-01  8.50000000E-01
  8.50000000E-01  8.50000000E-01  8.50000000E-01  8.50000000E-01  8.50000000E-01
  8.50000000E-01  8.50000000E-01  8.50000000E-01  8.50000000E-01  8.50000000E-01
  8.50000000E-01  8.50000000E-01  8.50000000E-01  8.50000000E-01  8.50000000E-01
  8.50000000E-01  8.50000000E-01  8.50000000E-01  8.50000000E-01  8.50000000E-01
  8.50000000E-01  8.50000000E-01  8.50000000E-01  8.50000000E-01  8.50000000E-01
  8.50000000E-01  8.50000000E-01  8.50000000E-01  8.50000000E-01  8.50000000E-01
  8.50000000E-01  8.50000000E-01  8.50000000E-01  8.50000000E-01  8.50000000E-01
  8.50000000E-01  8.50000000E-01  8.50000000E-01  8.50000000E-01  8.50000000E-01
  8.50000000E-01  8.50000000E-01  8.50000000E-01  8.50000000E-01  8.50000000E-01
  8.50000000E-01  8.50000000E-01  8.50000000E-01  8.50000000E-01  8.50000000E-01
  8.50000000E-01  8.50000000E-01  8.50000000E-01  8.50000000E-01  8.50000000E-01
  8.50000000E-01  8.50000000E-01  8.50000000E-01  8.50000000E-01  8.50000000E-01
  8.50000000E-01  8.50000000E-01  8.50000000E-01  8.50000000E-01  8.50000000E-01
  8.50000000E-01  8.50000000E-01  8.50000000E-01  8.50000000E-01  8.50000000E-01
  8.50000000E-01  8.50000000E-01  8.50000000E-01  8.50000000E-01  8.50000000E-01
  8.50000000E-01  8.50000000E-01  8.50000000E-01  8.50000000E-01  8.50000000E-01
  8.50000000E-01  8.50000000E-01  8.50000000E-01  8.50000000E-01  8.50000000E-01
  8.50000000E-01  8.50000000E-01  8.50000000E-01  8.50000000E-01  8.50000000E-01
  8.50000000E-01  8.50000000E-01  8.50000000E-01  8.50000000E-01  8.50000000E-01
  8.50000000E-01  8.50000000E-01  8.50000000E-01  8.50000000E-01  8.50000000E-01
  8.50000000E-01  8.50000000E-01  8.50000000E-01  8.50000000E-01  8.50000000E-01
  8.50000000E-01  8.50000000E-01  8.50000000E-01  8.50000000E-01  8.50000000E-01
  8.50000000E-01  8.50000000E-01  8.50000000E-01  8.50000000E-01  8.50000000E-01
  8.50000000E-01  8.50000000E-01  8.50000000E-01  8.50000000E-01  8.50000000E-01
  8.50000000E-01  8.50000000E-01  8.50000000E-01  8.50000000E-01  8.50000000E-01
  8.50000000E-01  8.50000000E-01  8.50000000E-01  8.50000000E-01  8.50000000E-01
  8.50000000E-01  8.50000000E-01  8.50000000E-01  8.50000000E-01  8.50000000E-01
  8.50000000E-01  8.50000000E-01  8.50000000E-01  8.50000000E-01  8.50000000E-01
  8.50000000E-01  8.50000000E-01  8.50000000E-01  8.50000000E-01  8.50000000E-01
  8.50000000E-01  8.50000000E-01  8.50000000E-01  8.50000000E-01  8.50000000E-01
  8.50000000E-01  8.50000000E-01  8.50000000E-01  8.50000000E-01  8.50000000E-01
  8.50000000E-01  8.50000000E-01  8.50000000E-01  8.50000000E-01  8.50000000E-01
  8.50000000E-01  8.50000000E-01  8.50000000E-01  8.50000000E-01  8.50000000E-01
  8.50000000E-01  8.50000000E-01  8.50000000E-01  8.50000000E-01  8.50000000E-01
  8.50000000E-01  8.50000000E-01  8.50000000E-01  8.50000000E-01  8.50000000E-01
  8.50000000E-01  8.50000000E-01  8.50000000E-01  8.50000000E-01  8.50000000E-01
  8.50000000E-01  8.50000000E-01  8.50000000E-01  8.50000000E-01  8.50000000E-01
  8.50000000E-01  8.50000000E-01  8.50000000E-01  8.50000000E-01  8.50000000E-01
  8.50000000E-01  8.50000000E-01  8.50000000E-01  8.50000000E-01  8.50000000E-01
  8.50000000E-01  8.50000000E-01  8.50000000E-01  8.50000000E-01  8.50000000E-01
  8.50000000E-01  8.50000000E-01  8.50000000E-01  8.50000000E-01  8.50000000E-01
  8.50000000E-01  8.50000000E-01  8.50000000E-01  8.50000000E-01  8.50000000E-01
  8.50000000E-01  8.50000000E-01  8.50000000E-01  8.50000000E-01  8.50000000E-01
  8.50000000E-01  8.50000000E-01  8.50000000E-01  8.50000000E-01  8.50000000E-01
  8.50000000E-01  8.50000000E-01  8.50000000E-01  8.50000000E-01  8.50000000E-01
  8.50000000E-01  8.50000000E-01  8.50000000E-01  8.50000000E-01  8.50000000E-01
  8.50000000E-01  8.50000000E-01  8.50000000E-01  8.50000000E-01  8.50000000E-01
  8.50000000E-01  8.50000000E-01  8.50000000E-01  8.50000000E-01  8.50000000E-01
  8.50000000E-01  8.50000000E-01  8.50000000E-01  8.50000000E-01  8.50000000E-01
  8.50000000E-01  8.50000000E-01  8.50000000E-01  8.50000000E-01  8.50000000E-01
  8.50000000E-01  8.50000000E-01  8.50000000E-01  8.50000000E-01  8.50000000E-01
  8.50000000E-01  8.50000000E-01  8.50000000E-01  8.50000000E-01  8.50000000E-01
  8.50000000E-01  8.50000000E-01  8.50000000E-01  8.50000000E-01  8.50000000E-01
  8.50000000E-01  8.50000000E-01  8.50000000E-01  8.50000000E-01  8.50000000E-01
  8.50000000E-01  8.50000000E-01  8.50000000E-01  8.50000000E-01  8.50000000E-01
  8.50000000E-01  8.50000000E-01  8.50000000E-01  8.50000000E-01  8.50000000E-01
  8.50000000E-01  8.50000000E-01  8.50000000E-01  8.50000000E-01  8.50000000E-01
  8.50000000E-01  8.50000000E-01  8.50000000E-01  8.50000000E-01  8.50000000E-01
  8.50000000E-01  8.50000000E-01  8.50000000E-01  8.50000000E-01  8.50000000E-01
  8.50000000E-01  8.50000000E-01  8.50000000E-01  8.50000000E-01  8.50000000E-01
  8.50000000E-01  8.50000000E-01  8.50000000E-01  8.50000000E-01  8.50000000E-01
  8.50000000E-01  8.50000000E-01  8.50000000E-01  8.50000000E-01  8.50000000E-01
  8.50000000E-01  8.50000000E-01  8.50000000E-01  8.50000000E-01  8.50000000E-01
  8.50000000E-01  8.50000000E-01  8.50000000E-01  8.50000000E-01  8.50000000E-01
  8.50000000E-01  8.50000000E-01  8.50000000E-01  8.50000000E-01  8.50000000E-01
  8.50000000E-01  8.50000000E-01  8.50000000E-01  8.50000000E-01  8.50000000E-01
  8.50000000E-01  8.50000000E-01  8.50000000E-01  8.50000000E-01  8.50000000E-01
  8.50000000E-01  8.50000000E-01  8.50000000E-01  8.50000000E-01  8.50000000E-01
  8.50000000E-01  8.50000000E-01  8.50000000E-01  8.50000000E-01  8.50000000E-01
  8.50000000E-01  8.50000000E-01  8.50000000E-01  8.50000000E-01  8.50000000E-01
  8.50000000E-01  8.50000000E-01  8.50000000E-01  8.50000000E-01  8.50000000E-01
  8.50000000E-01  8.50000000E-01  8.50000000E-01  8.50000000E-01  8.50000000E-01
  8.50000000E-01  8.50000000E-01  8.50000000E-01  8.50000000E-01  8.50000000E-01
  8.50000000E-01  8.50000000E-01  8.50000000E-01  8.50000000E-01  8.50000000E-01
  8.50000000E-01  8.50000000E-01  8.50000000E-01  8.50000000E-01  8.50000000E-01
  8.50000000E-01  8.50000000E-01  8.50000000E-01  8.50000000E-01  8.50000000E-01
  8.50000000E-01  8.50000000E-01  8.50000000E-01  8.50000000E-01  8.50000000E-01
  8.50000000E-01  8.50000000E-01  8.50000000E-01  8.50000000E-01  8.50000000E-01
  8.50000000E-01  8.50000000E-01  8.50000000E-01  8.50000000E-01  8.50000000E-01
  8.50000000E-01  8.50000000E-01  8.50000000E-01  8.50000000E-01  8.50000000E-01
  8.50000000E-01  8.50000000E-01  8.50000000E-01  8.50000000E-01  8.50000000E-01
  8.50000000E-01  8.50000000E-01  8.50000000E-01  8.50000000E-01  8.50000000E-01
  8.50000000E-01  8.50000000E-01  8.50000000E-01  8.50000000E-01  8.50000000E-01
  8.50000000E-01  8.50000000E-01  8.50000000E-01  8.50000000E-01  8.50000000E-01
  8.50000000E-01  8.50000000E-01  8.50000000E-01  8.50000000E-01  8.50000000E-01
  8.50000000E-01  8.50000000E-01  8.50000000E-01  8.50000000E-01  8.50000000E-01
  8.50000000E-01  8.50000000E-01  8.50000000E-01  8.50000000E-01  8.50000000E-01
  8.50000000E-01  8.50000000E-01  8.50000000E-01  8.50000000E-01  8.50000000E-01
  8.50000000E-01  8.50000000E-01  8.50000000E-01  8.50000000E-01  8.50000000E-01
  8.50000000E-01  8.50000000E-01  8.50000000E-01  8.50000000E-01  8.50000000E-01
  8.50000000E-01  8.50000000E-01  8.50000000E-01  8.50000000E-01  8.50000000E-01
  8.50000000E-01  8.50000000E-01  8.50000000E-01  8.50000000E-01  8.50000000E-01
  8.50000000E-01  8.50000000E-01  8.50000000E-01  8.50000000E-01  8.50000000E-01
  8.50000000E-01  8.50000000E-01  8.50000000E-01  8.50000000E-01  8.50000000E-01
  8.50000000E-01  8.50000000E-01  8.50000000E-01  8.50000000E-01  8.50000000E-01
  8.50000000E-01  8.50000000E-01  8.50000000E-01  8.50000000E-01  8.50000000E-01
  8.50000000E-01  8.50000000E-01  8.50000000E-01  8.50000000E-01  8.50000000E-01
  8.50000000E-01  8.50000000E-01  8.50000000E-01  8.50000000E-01  8.50000000E-01
  8.50000000E-01  8.50000000E-01  8.50000000E-01  8.50000000E-01  8.50000000E-01
  8.50000000E-01  8.50000000E-01  8.50000000E-01  8.50000000E-01  8.50000000E-01
  8.50000000E-01  8.50000000E-01  8.50000000E-01  8.50000000E-01  8.50000000E-01
  8.50000000E-01  8.50000000E-01  8.50000000E-01  8.50000000E-01  8.50000000E-01
  8.50000000E-01  8.50000000E-01  8.50000000E-01  8.50000000E-01  8.50000000E-01
  8.50000000E-01  8.50000000E-01  8.50000000E-01  8.50000000E-01  8.50000000E-01
  8.50000000E-01  8.50000000E-01  8.50000000E-01  8.50000000E-01  8.50000000E-01
  8.50000000E-01  8.50000000E-01  8.50000000E-01  8.50000000E-01  8.50000000E-01
  8.50000000E-01  8.50000000E-01  8.50000000E-01  8.50000000E-01  8.50000000E-01
  8.50000000E-01  8.50000000E-01  8.50000000E-01  8.50000000E-01  8.50000000E-01
  8.50000000E-01  8.50000000E-01  8.50000000E-01  8.50000000E-01  8.50000000E-01
  8.50000000E-01  8.50000000E-01  8.50000000E-01  8.50000000E-01  8.50000000E-01
  8.50000000E-01  8.50000000E-01  8.50000000E-01  8.50000000E-01  8.50000000E-01
  8.50000000E-01  8.50000000E-01  8.50000000E-01  8.50000000E-01  8.50000000E-01
  8.50000000E-01  8.50000000E-01  8.50000000E-01  8.50000000E-01  8.50000000E-01
  8.50000000E-01  8.50000000E-01  8.50000000E-01  8.50000000E-01  8.50000000E-01
  8.50000000E-01  8.50000000E-01  8.50000000E-01  8.50000000E-01  8.50000000E-01
  8.50000000E-01  8.50000000E-01  8.50000000E-01  8.50000000E-01  8.50000000E-01
  8.50000000E-01  8.50000000E-01  8.50000000E-01  8.50000000E-01  8.50000000E-01
  8.50000000E-01  8.50000000E-01  8.50000000E-01  8.50000000E-01  8.50000000E-01
  8.50000000E-01  8.50000000E-01  8.50000000E-01  8.50000000E-01  8.50000000E-01
  8.50000000E-01  8.50000000E-01  8.50000000E-01  8.50000000E-01  8.50000000E-01
  8.50000000E-01  8.50000000E-01  8.50000000E-01  8.50000000E-01  8.50000000E-01
  8.50000000E-01  8.50000000E-01  8.50000000E-01  8.50000000E-01  8.50000000E-01
  8.50000000E-01  8.50000000E-01  8.50000000E-01  8.50000000E-01  8.50000000E-01
  8.50000000E-01  8.50000000E-01  8.50000000E-01  8.50000000E-01  8.50000000E-01
  8.50000000E-01  8.50000000E-01  8.50000000E-01  8.50000000E-01  8.50000000E-01
  8.50000000E-01  8.50000000E-01  8.50000000E-01  8.50000000E-01  8.50000000E-01
  8.50000000E-01  8.50000000E-01  8.50000000E-01  8.50000000E-01  8.50000000E-01
  8.50000000E-01  8.50000000E-01  8.50000000E-01  8.50000000E-01  8.50000000E-01
  8.50000000E-01  8.50000000E-01  8.50000000E-01  8.50000000E-01  8.50000000E-01
  8.50000000E-01  8.50000000E-01  8.50000000E-01  8.50000000E-01  8.50000000E-01
  8.50000000E-01  8.50000000E-01  8.50000000E-01  8.50000000E-01  8.50000000E-01
  8.50000000E-01  8.50000000E-01  8.50000000E-01  8.50000000E-01  8.50000000E-01
  8.50000000E-01  8.50000000E-01  8.50000000E-01  8.50000000E-01  8.50000000E-01
  8.50000000E-01  8.50000000E-01  8.50000000E-01  8.50000000E-01  8.50000000E-01
  8.50000000E-01  8.50000000E-01  8.50000000E-01  8.50000000E-01  8.50000000E-01
  8.50000000E-01  8.50000000E-01  8.50000000E-01  8.50000000E-01  8.50000000E-01
  8.50000000E-01  8.50000000E-01  8.50000000E-01  8.50000000E-01  8.50000000E-01
  8.50000000E-01  8.50000000E-01  8.50000000E-01  8.50000000E-01  8.50000000E-01
  8.50000000E-01  8.50000000E-01  8.50000000E-01  8.50000000E-01  8.50000000E-01
  8.50000000E-01  8.50000000E-01  8.50000000E-01  8.50000000E-01  8.50000000E-01
  8.50000000E-01  8.50000000E-01  8.50000000E-01  8.50000000E-01  8.50000000E-01
  8.50000000E-01  8.50000000E-01  8.50000000E-01  8.50000000E-01  8.50000000E-01
  8.50000000E-01  8.50000000E-01  8.50000000E-01  8.50000000E-01  8.50000000E-01
  8.50000000E-01  8.50000000E-01  8.50000000E-01  8.50000000E-01  8.50000000E-01
  8.50000000E-01  8.50000000E-01  8.50000000E-01  8.50000000E-01  8.50000000E-01
  8.50000000E-01  8.50000000E-01  8.50000000E-01  8.50000000E-01  8.50000000E-01
  8.50000000E-01  8.50000000E-01  8.50000000E-01  8.50000000E-01  8.50000000E-01
  8.50000000E-01  8.50000000E-01  8.50000000E-01  8.50000000E-01  8.50000000E-01
  8.50000000E-01  8.50000000E-01  8.50000000E-01  8.50000000E-01  8.50000000E-01
  8.50000000E-01  8.50000000E-01  8.50000000E-01  8.50000000E-01  8.50000000E-01
  8.50000000E-01  8.50000000E-01  8.50000000E-01  8.50000000E-01  8.50000000E-01
  8.50000000E-01  8.50000000E-01  8.50000000E-01  8.50000000E-01  8.50000000E-01
  8.50000000E-01  8.50000000E-01  8.50000000E-01  8.50000000E-01  8.50000000E-01
  8.50000000E-01  8.50000000E-01  8.50000000E-01  8.50000000E-01  8.50000000E-01
  8.50000000E-01  8.50000000E-01  8.50000000E-01  8.50000000E-01  8.50000000E-01
  8.50000000E-01  8.50000000E-01  8.50000000E-01  8.50000000E-01  8.50000000E-01
  8.50000000E-01  8.50000000E-01  8.50000000E-01  8.50000000E-01  8.50000000E-01
  8.50000000E-01  8.50000000E-01  8.50000000E-01  8.50000000E-01  8.50000000E-01
  8.50000000E-01  8.50000000E-01  8.50000000E-01  8.50000000E-01  8.50000000E-01
  8.50000000E-01  8.50000000E-01  8.50000000E-01  8.50000000E-01  8.50000000E-01
  8.50000000E-01  8.50000000E-01  8.50000000E-01  8.50000000E-01  8.50000000E-01
  8.50000000E-01  8.50000000E-01  8.50000000E-01  8.50000000E-01  8.50000000E-01
  8.50000000E-01  8.50000000E-01  8.50000000E-01  8.50000000E-01  8.50000000E-01
  8.50000000E-01  8.50000000E-01  8.50000000E-01  8.50000000E-01  8.50000000E-01
  8.50000000E-01  8.50000000E-01  8.50000000E-01  8.50000000E-01  8.50000000E-01
  8.50000000E-01  8.50000000E-01  8.50000000E-01  8.50000000E-01  8.50000000E-01
  8.50000000E-01  8.50000000E-01  8.50000000E-01  8.50000000E-01  8.50000000E-01
  8.50000000E-01  8.50000000E-01  8.50000000E-01  8.50000000E-01  8.50000000E-01
  8.50000000E-01  8.50000000E-01  8.50000000E-01  8.50000000E-01  8.50000000E-01
  8.50000000E-01  8.50000000E-01  8.50000000E-01  8.50000000E-01  8.50000000E-01
  8.50000000E-01  8.50000000E-01  8.50000000E-01  8.50000000E-01  8.50000000E-01
  8.50000000E-01  8.50000000E-01  8.50000000E-01  8.50000000E-01  8.50000000E-01
  8.50000000E-01  8.50000000E-01  8.50000000E-01  8.50000000E-01  8.50000000E-01
  8.50000000E-01  8.50000000E-01  8.50000000E-01  8.50000000E-01  8.50000000E-01
  8.50000000E-01  8.50000000E-01  8.50000000E-01  8.50000000E-01  8.50000000E-01
  8.50000000E-01  8.50000000E-01  8.50000000E-01  8.50000000E-01  8.50000000E-01
  8.50000000E-01  8.50000000E-01  8.50000000E-01  8.50000000E-01  8.50000000E-01
  8.50000000E-01  8.50000000E-01  8.50000000E-01  8.50000000E-01  8.50000000E-01
  8.50000000E-01  8.50000000E-01  8.50000000E-01  8.50000000E-01  8.50000000E-01
  8.50000000E-01  8.50000000E-01  8.50000000E-01  8.50000000E-01  8.50000000E-01
  8.50000000E-01  8.50000000E-01  8.50000000E-01  8.50000000E-01  8.50000000E-01
  8.50000000E-01  8.50000000E-01  8.50000000E-01  8.50000000E-01  8.50000000E-01
  8.50000000E-01  8.50000000E-01  8.50000000E-01  8.50000000E-01  8.50000000E-01
  8.50000000E-01  8.50000000E-01  8.50000000E-01  8.50000000E-01  8.50000000E-01
  8.50000000E-01  8.50000000E-01  8.50000000E-01  8.50000000E-01  8.50000000E-01
  8.50000000E-01  8.50000000E-01  8.50000000E-01  8.50000000E-01  8.50000000E-01
  8.50000000E-01  8.50000000E-01  8.50000000E-01  8.50000000E-01  8.50000000E-01
  8.50000000E-01  8.50000000E-01  8.50000000E-01  8.50000000E-01  8.50000000E-01
  8.50000000E-01  8.50000000E-01  8.50000000E-01  8.50000000E-01  8.50000000E-01
  8.50000000E-01  8.50000000E-01  8.50000000E-01  8.50000000E-01  8.50000000E-01
  8.50000000E-01  8.50000000E-01  8.50000000E-01  8.50000000E-01  8.50000000E-01
  8.50000000E-01  8.50000000E-01  8.50000000E-01  8.50000000E-01  8.50000000E-01
  8.50000000E-01  8.50000000E-01  8.50000000E-01  8.50000000E-01  8.50000000E-01
  8.50000000E-01  8.50000000E-01  8.50000000E-01  8.50000000E-01  8.50000000E-01
  8.50000000E-01  8.50000000E-01  8.50000000E-01  8.50000000E-01  8.50000000E-01
  8.50000000E-01  8.50000000E-01  8.50000000E-01  8.50000000E-01  8.50000000E-01
  8.50000000E-01  8.50000000E-01  8.50000000E-01  8.50000000E-01  8.50000000E-01
  8.50000000E-01  8.50000000E-01  8.50000000E-01  8.50000000E-01  8.50000000E-01
  8.50000000E-01  8.50000000E-01  8.50000000E-01  8.50000000E-01  8.50000000E-01
  8.50000000E-01  8.50000000E-01  8.50000000E-01  8.50000000E-01  8.50000000E-01
  8.50000000E-01  8.50000000E-01  8.50000000E-01  8.50000000E-01  8.50000000E-01
  8.50000000E-01  8.50000000E-01  8.50000000E-01  8.50000000E-01  8.50000000E-01
  8.50000000E-01  8.50000000E-01  8.50000000E-01  8.50000000E-01  8.50000000E-01
  8.50000000E-01  8.50000000E-01  8.50000000E-01  8.50000000E-01  8.50000000E-01
  8.50000000E-01  8.50000000E-01  8.50000000E-01  8.50000000E-01  8.50000000E-01
  8.50000000E-01  8.50000000E-01  8.50000000E-01  8.50000000E-01  8.50000000E-01
  8.50000000E-01  8.50000000E-01  8.50000000E-01  8.50000000E-01  8.50000000E-01
  8.50000000E-01  8.50000000E-01  8.50000000E-01  8.50000000E-01  8.50000000E-01
  8.50000000E-01  8.50000000E-01  8.50000000E-01  8.50000000E-01  8.50000000E-01
  8.50000000E-01  8.50000000E-01  8.50000000E-01  8.50000000E-01  8.50000000E-01
  8.50000000E-01  8.50000000E-01  8.50000000E-01  8.50000000E-01  8.50000000E-01
  8.50000000E-01  8.50000000E-01  8.50000000E-01  8.50000000E-01  8.50000000E-01
  8.50000000E-01  8.50000000E-01  8.50000000E-01  8.50000000E-01  8.50000000E-01
  8.50000000E-01  8.50000000E-01  8.50000000E-01  8.50000000E-01  8.50000000E-01
  8.50000000E-01  8.50000000E-01  8.50000000E-01  8.50000000E-01  8.50000000E-01
  8.50000000E-01  8.50000000E-01  8.50000000E-01  8.50000000E-01  8.50000000E-01
  8.50000000E-01  8.50000000E-01  8.50000000E-01  8.50000000E-01  8.50000000E-01
  8.50000000E-01  8.50000000E-01  8.50000000E-01  8.50000000E-01  8.50000000E-01
  8.50000000E-01  8.50000000E-01  8.50000000E-01  8.50000000E-01  8.50000000E-01
  8.50000000E-01  8.50000000E-01  8.50000000E-01  8.50000000E-01  8.50000000E-01
  8.50000000E-01  8.50000000E-01  8.50000000E-01  8.50000000E-01  8.50000000E-01
  8.50000000E-01  8.50000000E-01  8.50000000E-01  8.50000000E-01  8.50000000E-01
  8.50000000E-01  8.50000000E-01  8.50000000E-01  8.50000000E-01  8.50000000E-01
  8.50000000E-01  8.50000000E-01  8.50000000E-01  8.50000000E-01  8.50000000E-01
  8.50000000E-01  8.50000000E-01  8.50000000E-01  8.50000000E-01  8.50000000E-01
  8.50000000E-01  8.50000000E-01  8.50000000E-01  8.50000000E-01  8.50000000E-01
  8.50000000E-01  8.50000000E-01  8.50000000E-01  8.50000000E-01  8.50000000E-01
  8.50000000E-01  8.50000000E-01  8.50000000E-01  8.50000000E-01  8.50000000E-01
  8.50000000E-01  8.50000000E-01  8.50000000E-01  8.50000000E-01  8.50000000E-01
  8.50000000E-01  8.50000000E-01  8.50000000E-01  8.50000000E-01  8.50000000E-01
  8.50000000E-01  8.50000000E-01  8.50000000E-01  8.50000000E-01  8.50000000E-01
  8.50000000E-01  8.50000000E-01  8.50000000E-01  8.50000000E-01  8.50000000E-01
  8.50000000E-01  8.50000000E-01  8.50000000E-01  8.50000000E-01  8.50000000E-01
  8.50000000E-01  8.50000000E-01  8.50000000E-01  8.50000000E-01  8.50000000E-01
  8.50000000E-01  8.50000000E-01  8.50000000E-01  8.50000000E-01  8.50000000E-01
  8.50000000E-01  8.50000000E-01  8.50000000E-01  8.50000000E-01  8.50000000E-01
  8.50000000E-01  8.50000000E-01  8.50000000E-01  8.50000000E-01  8.50000000E-01
  8.50000000E-01  8.50000000E-01  8.50000000E-01  8.50000000E-01  8.50000000E-01
  8.50000000E-01  8.50000000E-01  8.50000000E-01  8.50000000E-01  8.50000000E-01
  8.50000000E-01  8.50000000E-01  8.50000000E-01  8.50000000E-01  8.50000000E-01
  8.50000000E-01  8.50000000E-01  8.50000000E-01  8.50000000E-01  8.50000000E-01
  8.50000000E-01  8.50000000E-01  8.50000000E-01  8.50000000E-01  8.50000000E-01
  8.50000000E-01  8.50000000E-01  8.50000000E-01  8.50000000E-01  8.50000000E-01
  8.50000000E-01  8.50000000E-01  8.50000000E-01  8.50000000E-01  8.50000000E-01
  8.50000000E-01  8.50000000E-01  8.50000000E-01  8.50000000E-01  8.50000000E-01
  8.50000000E-01  8.50000000E-01  8.50000000E-01  8.50000000E-01  8.50000000E-01
  8.50000000E-01  8.50000000E-01  8.50000000E-01  8.50000000E-01  8.50000000E-01
  8.50000000E-01  8.50000000E-01  8.50000000E-01  8.50000000E-01  8.50000000E-01
  8.50000000E-01  8.50000000E-01  8.50000000E-01  8.50000000E-01  8.50000000E-01
  8.50000000E-01  8.50000000E-01  8.50000000E-01  8.50000000E-01  8.50000000E-01
  8.50000000E-01  8.50000000E-01  8.50000000E-01  8.50000000E-01  8.50000000E-01
  8.50000000E-01  8.50000000E-01  8.50000000E-01  8.50000000E-01  8.50000000E-01
  8.50000000E-01  8.50000000E-01  8.50000000E-01  8.50000000E-01  8.50000000E-01
  8.50000000E-01  8.50000000E-01  8.50000000E-01  8.50000000E-01  8.50000000E-01
  8.50000000E-01  8.50000000E-01  8.50000000E-01  8.50000000E-01  8.50000000E-01
  8.50000000E-01  8.50000000E-01  8.50000000E-01  8.50000000E-01  8.50000000E-01
  8.50000000E-01  8.50000000E-01  8.50000000E-01  8.50000000E-01  8.50000000E-01
  8.50000000E-01  8.50000000E-01  8.50000000E-01  8.50000000E-01  8.50000000E-01
  8.50000000E-01  8.50000000E-01  8.50000000E-01  8.50000000E-01  8.50000000E-01
  8.50000000E-01  8.50000000E-01  8.50000000E-01  8.50000000E-01  8.50000000E-01
  8.50000000E-01  8.50000000E-01  8.50000000E-01  8.50000000E-01  8.50000000E-01
  8.50000000E-01  8.50000000E-01  8.50000000E-01  8.50000000E-01  8.50000000E-01
  8.50000000E-01  8.50000000E-01  8.50000000E-01  8.50000000E-01  8.50000000E-01
  8.50000000E-01  8.50000000E-01  8.50000000E-01  8.50000000E-01  8.50000000E-01
  8.50000000E-01  8.50000000E-01  8.50000000E-01  8.50000000E-01  8.50000000E-01
  8.50000000E-01  8.50000000E-01  8.50000000E-01  8.50000000E-01  8.50000000E-01
  8.50000000E-01  8.50000000E-01  8.50000000E-01  8.50000000E-01  8.50000000E-01
  8.50000000E-01  8.50000000E-01  8.50000000E-01  8.50000000E-01  8.50000000E-01
  8.50000000E-01  8.50000000E-01  8.50000000E-01  8.50000000E-01  8.50000000E-01
  8.50000000E-01  8.50000000E-01  8.50000000E-01  8.50000000E-01  8.50000000E-01
  8.50000000E-01  8.50000000E-01  8.50000000E-01  8.50000000E-01  8.50000000E-01
  8.50000000E-01  8.50000000E-01  8.50000000E-01  8.50000000E-01  8.50000000E-01
  8.50000000E-01  8.50000000E-01  8.50000000E-01  8.50000000E-01  8.50000000E-01
  8.50000000E-01  8.50000000E-01  8.50000000E-01  8.50000000E-01  8.50000000E-01
  8.50000000E-01  8.50000000E-01  8.50000000E-01  8.50000000E-01  8.50000000E-01
  8.50000000E-01  8.50000000E-01  8.50000000E-01  8.50000000E-01  8.50000000E-01
  8.50000000E-01  8.50000000E-01  8.50000000E-01  8.50000000E-01  8.50000000E-01
  8.50000000E-01  8.50000000E-01  8.50000000E-01  8.50000000E-01  8.50000000E-01
  8.50000000E-01  8.50000000E-01  8.50000000E-01  8.50000000E-01  8.50000000E-01
  8.50000000E-01  8.50000000E-01  8.50000000E-01  8.50000000E-01  8.50000000E-01
  8.50000000E-01  8.50000000E-01  8.50000000E-01  8.50000000E-01  8.50000000E-01
  8.50000000E-01  8.50000000E-01  8.50000000E-01  8.50000000E-01  8.50000000E-01
  8.50000000E-01  8.50000000E-01  8.50000000E-01  8.50000000E-01  8.50000000E-01
  8.50000000E-01  8.50000000E-01  8.50000000E-01  8.50000000E-01  8.50000000E-01
  8.50000000E-01  8.50000000E-01  8.50000000E-01  8.50000000E-01  8.50000000E-01
  8.50000000E-01  8.50000000E-01  8.50000000E-01  8.50000000E-01  8.50000000E-01
  8.50000000E-01  8.50000000E-01  8.50000000E-01  8.50000000E-01  8.50000000E-01
  8.50000000E-01  8.50000000E-01  8.50000000E-01  8.50000000E-01  8.50000000E-01
  8.50000000E-01  8.50000000E-01  8.50000000E-01  8.50000000E-01  8.50000000E-01
  8.50000000E-01  8.50000000E-01  8.50000000E-01  8.50000000E-01  8.50000000E-01
  8.50000000E-01  8.50000000E-01  8.50000000E-01  8.50000000E-01  8.50000000E-01
  8.50000000E-01  8.50000000E-01  8.50000000E-01  8.50000000E-01  8.50000000E-01
  8.50000000E-01  8.50000000E-01  8.50000000E-01  8.50000000E-01  8.50000000E-01
  8.50000000E-01  8.50000000E-01  8.50000000E-01  8.50000000E-01  8.50000000E-01
  8.50000000E-01  8.50000000E-01  8.50000000E-01  8.50000000E-01  8.50000000E-01
  8.50000000E-01  8.50000000E-01  8.50000000E-01  8.50000000E-01  8.50000000E-01
  8.50000000E-01  8.50000000E-01  8.50000000E-01  8.50000000E-01  8.50000000E-01
  8.50000000E-01  8.50000000E-01  8.50000000E-01  8.50000000E-01  8.50000000E-01
  8.50000000E-01  8.50000000E-01  8.50000000E-01  8.50000000E-01  8.50000000E-01
  8.50000000E-01  8.50000000E-01  8.50000000E-01  8.50000000E-01  8.50000000E-01
  8.50000000E-01  8.50000000E-01  8.50000000E-01  8.50000000E-01  8.50000000E-01
  8.50000000E-01  8.50000000E-01  8.50000000E-01  8.50000000E-01  8.50000000E-01
  8.50000000E-01  8.50000000E-01  8.50000000E-01  8.50000000E-01  8.50000000E-01
  8.50000000E-01  8.50000000E-01  8.50000000E-01  8.50000000E-01  8.50000000E-01
  8.50000000E-01  8.50000000E-01  8.50000000E-01  8.50000000E-01  8.50000000E-01
  8.50000000E-01  8.50000000E-01  8.50000000E-01  8.50000000E-01  8.50000000E-01
  8.50000000E-01  8.50000000E-01  8.50000000E-01  8.50000000E-01  8.50000000E-01
  8.50000000E-01  8.50000000E-01  8.50000000E-01  8.50000000E-01  8.50000000E-01
  8.50000000E-01  8.50000000E-01  8.50000000E-01  8.50000000E-01  8.50000000E-01
  8.50000000E-01  8.50000000E-01  8.50000000E-01  8.50000000E-01  8.50000000E-01
  8.50000000E-01  8.50000000E-01  8.50000000E-01  8.50000000E-01  8.50000000E-01
  8.50000000E-01  8.50000000E-01  8.50000000E-01  8.50000000E-01  8.50000000E-01
  8.50000000E-01  8.50000000E-01  8.50000000E-01  8.50000000E-01  8.50000000E-01
  8.50000000E-01  8.50000000E-01  8.50000000E-01  8.50000000E-01  8.50000000E-01
  8.50000000E-01  8.50000000E-01  8.50000000E-01  8.50000000E-01  8.50000000E-01
  8.50000000E-01  8.50000000E-01  8.50000000E-01  8.50000000E-01  8.50000000E-01
  8.50000000E-01  8.50000000E-01  8.50000000E-01  8.50000000E-01  8.50000000E-01
  8.50000000E-01  8.50000000E-01  8.50000000E-01  8.50000000E-01  8.50000000E-01
  8.50000000E-01  8.50000000E-01  8.50000000E-01  8.50000000E-01  8.50000000E-01
  8.50000000E-01  8.50000000E-01  8.50000000E-01  8.50000000E-01  8.50000000E-01
  8.50000000E-01  8.50000000E-01  8.50000000E-01  8.50000000E-01  8.50000000E-01
  8.50000000E-01  8.50000000E-01  8.50000000E-01  8.50000000E-01  8.50000000E-01
  8.50000000E-01  8.50000000E-01  8.50000000E-01  8.50000000E-01  8.50000000E-01
  8.50000000E-01  8.50000000E-01  8.50000000E-01  8.50000000E-01  8.50000000E-01
  8.50000000E-01  8.50000000E-01  8.50000000E-01  8.50000000E-01  8.50000000E-01
  8.50000000E-01  8.50000000E-01  8.50000000E-01  8.50000000E-01  8.50000000E-01
  8.50000000E-01  8.50000000E-01  8.50000000E-01  8.50000000E-01  8.50000000E-01
  8.50000000E-01  8.50000000E-01  8.50000000E-01  8.50000000E-01  8.50000000E-01
  8.50000000E-01  8.50000000E-01  8.50000000E-01  8.50000000E-01  8.50000000E-01
  8.50000000E-01  8.50000000E-01  8.50000000E-01  8.50000000E-01  8.50000000E-01
  8.50000000E-01  8.50000000E-01  8.50000000E-01  8.50000000E-01  8.50000000E-01
  8.50000000E-01  8.50000000E-01  8.50000000E-01  8.50000000E-01  8.50000000E-01
  8.50000000E-01  8.50000000E-01  8.50000000E-01  8.50000000E-01  8.50000000E-01
  8.50000000E-01  8.50000000E-01  8.50000000E-01  8.50000000E-01  8.50000000E-01
  8.50000000E-01  8.50000000E-01  8.50000000E-01  8.50000000E-01  8.50000000E-01
  8.50000000E-01  8.50000000E-01  8.50000000E-01  8.50000000E-01  8.50000000E-01
  8.50000000E-01  8.50000000E-01  8.50000000E-01  8.50000000E-01  8.50000000E-01
  8.50000000E-01  8.50000000E-01  8.50000000E-01  8.50000000E-01  8.50000000E-01
  8.50000000E-01  8.50000000E-01  8.50000000E-01  8.50000000E-01  8.50000000E-01
  8.50000000E-01  8.50000000E-01  8.50000000E-01  8.50000000E-01  8.50000000E-01
  8.50000000E-01  8.50000000E-01  8.50000000E-01  8.50000000E-01  8.50000000E-01
  8.50000000E-01  8.50000000E-01  8.50000000E-01  8.50000000E-01  8.50000000E-01
  8.50000000E-01  8.50000000E-01  8.50000000E-01  8.50000000E-01  8.50000000E-01
  8.50000000E-01  8.50000000E-01  8.50000000E-01  8.50000000E-01  8.50000000E-01
  8.50000000E-01  8.50000000E-01  8.50000000E-01  8.50000000E-01  8.50000000E-01
  8.50000000E-01  8.50000000E-01  8.50000000E-01  8.50000000E-01  8.50000000E-01
  8.50000000E-01  8.50000000E-01  8.50000000E-01  8.50000000E-01  8.50000000E-01
  8.50000000E-01  8.50000000E-01  8.50000000E-01  8.50000000E-01  8.50000000E-01
  8.50000000E-01  8.50000000E-01  8.50000000E-01  8.50000000E-01  8.50000000E-01
  8.50000000E-01  8.50000000E-01  8.50000000E-01  8.50000000E-01  8.50000000E-01
  8.50000000E-01  8.50000000E-01  8.50000000E-01  8.50000000E-01  8.50000000E-01
  8.50000000E-01  8.50000000E-01  8.50000000E-01  8.50000000E-01  8.50000000E-01
  8.50000000E-01  8.50000000E-01  8.50000000E-01  8.50000000E-01  8.50000000E-01
  8.50000000E-01  8.50000000E-01  8.50000000E-01  8.50000000E-01  8.50000000E-01
  8.50000000E-01  8.50000000E-01  8.50000000E-01  8.50000000E-01  8.50000000E-01
  8.50000000E-01  8.50000000E-01  8.50000000E-01  8.50000000E-01  8.50000000E-01
  8.50000000E-01  8.50000000E-01  8.50000000E-01  8.50000000E-01  8.50000000E-01
  8.50000000E-01  8.50000000E-01  8.50000000E-01  8.50000000E-01  8.50000000E-01
  8.50000000E-01  8.50000000E-01  8.50000000E-01  8.50000000E-01  8.50000000E-01
  8.50000000E-01  8.50000000E-01  8.50000000E-01  8.50000000E-01  8.50000000E-01
  8.50000000E-01  8.50000000E-01  8.50000000E-01  8.50000000E-01  8.50000000E-01
  8.50000000E-01  8.50000000E-01  8.50000000E-01  8.50000000E-01  8.50000000E-01
  8.50000000E-01  8.50000000E-01  8.50000000E-01  8.50000000E-01  8.50000000E-01
  8.50000000E-01  8.50000000E-01  8.50000000E-01  8.50000000E-01  8.50000000E-01
  8.50000000E-01  8.50000000E-01  8.50000000E-01  8.50000000E-01  8.50000000E-01
  8.50000000E-01  8.50000000E-01  8.50000000E-01  8.50000000E-01  8.50000000E-01
  8.50000000E-01  8.50000000E-01  8.50000000E-01  8.50000000E-01  8.50000000E-01
  8.50000000E-01  8.50000000E-01  8.50000000E-01  8.50000000E-01  8.50000000E-01
  8.50000000E-01  8.50000000E-01  8.50000000E-01  8.50000000E-01  8.50000000E-01
  8.50000000E-01  8.50000000E-01  8.50000000E-01  8.50000000E-01  8.50000000E-01
  8.50000000E-01  8.50000000E-01  8.50000000E-01  8.50000000E-01  8.50000000E-01
  8.50000000E-01  8.50000000E-01  8.50000000E-01  8.50000000E-01  8.50000000E-01
  8.50000000E-01  8.50000000E-01  8.50000000E-01  8.50000000E-01  8.50000000E-01
  8.50000000E-01  8.50000000E-01  8.50000000E-01  8.50000000E-01  8.50000000E-01
  8.50000000E-01  8.50000000E-01  8.50000000E-01  8.50000000E-01  8.50000000E-01
  8.50000000E-01  8.50000000E-01  8.50000000E-01  8.50000000E-01  8.50000000E-01
  8.50000000E-01  8.50000000E-01  8.50000000E-01  8.50000000E-01  8.50000000E-01
  8.50000000E-01  8.50000000E-01  8.50000000E-01  8.50000000E-01  8.50000000E-01
  8.50000000E-01  8.50000000E-01  8.50000000E-01  8.50000000E-01  8.50000000E-01
  8.50000000E-01  8.50000000E-01  8.50000000E-01  8.50000000E-01  8.50000000E-01
  8.50000000E-01  8.50000000E-01  8.50000000E-01  8.50000000E-01  8.50000000E-01
  8.50000000E-01  8.50000000E-01  8.50000000E-01  8.50000000E-01  8.50000000E-01
  8.50000000E-01  8.50000000E-01  8.50000000E-01  8.50000000E-01  8.50000000E-01
  8.50000000E-01  8.50000000E-01  8.50000000E-01  8.50000000E-01  8.50000000E-01
  8.50000000E-01  8.50000000E-01  8.50000000E-01  8.50000000E-01  8.50000000E-01
  8.50000000E-01  8.50000000E-01  8.50000000E-01  8.50000000E-01  8.50000000E-01
  8.50000000E-01  8.50000000E-01  8.50000000E-01  8.50000000E-01  8.50000000E-01
  8.50000000E-01  8.50000000E-01  8.50000000E-01  8.50000000E-01  8.50000000E-01
  8.50000000E-01  8.50000000E-01  8.50000000E-01  8.50000000E-01  8.50000000E-01
  8.50000000E-01  8.50000000E-01  8.50000000E-01  8.50000000E-01  8.50000000E-01
  8.50000000E-01  8.50000000E-01  8.50000000E-01  8.50000000E-01  8.50000000E-01
  8.50000000E-01  8.50000000E-01  8.50000000E-01  8.50000000E-01  8.50000000E-01
  8.50000000E-01  8.50000000E-01  8.50000000E-01  8.50000000E-01  8.50000000E-01
  8.50000000E-01  8.50000000E-01  8.50000000E-01  8.50000000E-01  8.50000000E-01
  8.50000000E-01  8.50000000E-01  8.50000000E-01  8.50000000E-01  8.50000000E-01
  8.50000000E-01  8.50000000E-01  8.50000000E-01  8.50000000E-01  8.50000000E-01
  8.50000000E-01  8.50000000E-01  8.50000000E-01  8.50000000E-01  8.50000000E-01
  8.50000000E-01  8.50000000E-01  8.50000000E-01  8.50000000E-01  8.50000000E-01
  8.50000000E-01  8.50000000E-01  8.50000000E-01  8.50000000E-01  8.50000000E-01
  8.50000000E-01  8.50000000E-01  8.50000000E-01  8.50000000E-01  8.50000000E-01
  8.50000000E-01  8.50000000E-01  8.50000000E-01  8.50000000E-01  8.50000000E-01
  8.50000000E-01  8.50000000E-01  8.50000000E-01  8.50000000E-01  8.50000000E-01
  8.50000000E-01  8.50000000E-01  8.50000000E-01  8.50000000E-01  8.50000000E-01
  8.50000000E-01  8.50000000E-01  8.50000000E-01  8.50000000E-01  8.50000000E-01
  8.50000000E-01  8.50000000E-01  8.50000000E-01  8.50000000E-01  8.50000000E-01
  8.50000000E-01  8.50000000E-01  8.50000000E-01  8.50000000E-01  8.50000000E-01
  8.50000000E-01  8.50000000E-01  8.50000000E-01  8.50000000E-01  8.50000000E-01
  8.50000000E-01  8.50000000E-01  8.50000000E-01  8.50000000E-01  8.50000000E-01
  8.50000000E-01  8.50000000E-01  8.50000000E-01  8.50000000E-01  8.50000000E-01
  8.50000000E-01  8.50000000E-01  8.50000000E-01  8.50000000E-01  8.50000000E-01
  8.50000000E-01  8.50000000E-01  8.50000000E-01  8.50000000E-01  8.50000000E-01
  8.50000000E-01  8.50000000E-01  8.50000000E-01  8.50000000E-01  8.50000000E-01
  8.50000000E-01  8.50000000E-01  8.50000000E-01  8.50000000E-01  8.50000000E-01
  8.50000000E-01  8.50000000E-01  8.50000000E-01  8.50000000E-01  8.50000000E-01
  8.50000000E-01  8.50000000E-01  8.50000000E-01  8.50000000E-01  8.50000000E-01
  8.50000000E-01  8.50000000E-01  8.50000000E-01  8.50000000E-01  8.50000000E-01
  8.50000000E-01  8.50000000E-01  8.50000000E-01  8.50000000E-01  8.50000000E-01
  8.50000000E-01  8.50000000E-01  8.50000000E-01  8.50000000E-01  8.50000000E-01
  8.50000000E-01  8.50000000E-01  8.50000000E-01  8.50000000E-01  8.50000000E-01
  8.50000000E-01  8.50000000E-01  8.50000000E-01  8.50000000E-01  8.50000000E-01
  8.50000000E-01  8.50000000E-01  8.50000000E-01  8.50000000E-01  8.50000000E-01
  8.50000000E-01  8.50000000E-01  8.50000000E-01  8.50000000E-01  8.50000000E-01
  8.50000000E-01  8.50000000E-01  8.50000000E-01  8.50000000E-01  8.50000000E-01
  8.50000000E-01  8.50000000E-01  8.50000000E-01  8.50000000E-01  8.50000000E-01
  8.50000000E-01  8.50000000E-01  8.50000000E-01  8.50000000E-01  8.50000000E-01
  8.50000000E-01  8.50000000E-01  8.50000000E-01  8.50000000E-01  8.50000000E-01
  8.50000000E-01  8.50000000E-01  8.50000000E-01  8.50000000E-01  8.50000000E-01
  8.50000000E-01  8.50000000E-01  8.50000000E-01  8.50000000E-01  8.50000000E-01
  8.50000000E-01  8.50000000E-01  8.50000000E-01  8.50000000E-01  8.50000000E-01
  8.50000000E-01  8.50000000E-01  8.50000000E-01  8.50000000E-01  8.50000000E-01
  8.50000000E-01  8.50000000E-01  8.50000000E-01  8.50000000E-01  8.50000000E-01
  8.50000000E-01  8.50000000E-01  8.50000000E-01  8.50000000E-01  8.50000000E-01
  8.50000000E-01  8.50000000E-01  8.50000000E-01  8.50000000E-01  8.50000000E-01
  8.50000000E-01  8.50000000E-01  8.50000000E-01  8.50000000E-01  8.50000000E-01
  8.50000000E-01  8.50000000E-01  8.50000000E-01  8.50000000E-01  8.50000000E-01
  8.50000000E-01  8.50000000E-01  8.50000000E-01  8.50000000E-01  8.50000000E-01
  8.50000000E-01  8.50000000E-01  8.50000000E-01  8.50000000E-01  8.50000000E-01
  8.50000000E-01  8.50000000E-01  8.50000000E-01  8.50000000E-01  8.50000000E-01
  8.50000000E-01  8.50000000E-01  8.50000000E-01  8.50000000E-01  8.50000000E-01
  8.50000000E-01  8.50000000E-01  8.50000000E-01  8.50000000E-01  8.50000000E-01
  8.50000000E-01  8.50000000E-01  8.50000000E-01  8.50000000E-01  8.50000000E-01
  8.50000000E-01  8.50000000E-01  8.50000000E-01  8.50000000E-01  8.50000000E-01
  8.50000000E-01  8.50000000E-01  8.50000000E-01  8.50000000E-01  8.50000000E-01
  8.50000000E-01  8.50000000E-01  8.50000000E-01  8.50000000E-01  8.50000000E-01
  8.50000000E-01  8.50000000E-01  8.50000000E-01  8.50000000E-01  8.50000000E-01
  8.50000000E-01  8.50000000E-01  8.50000000E-01  8.50000000E-01  8.50000000E-01
  8.50000000E-01  8.50000000E-01  8.50000000E-01  8.50000000E-01  8.50000000E-01
  8.50000000E-01  8.50000000E-01  8.50000000E-01  8.50000000E-01  8.50000000E-01
  8.50000000E-01  8.50000000E-01  8.50000000E-01  8.50000000E-01  8.50000000E-01
  8.50000000E-01  8.50000000E-01  8.50000000E-01  8.50000000E-01  8.50000000E-01
  8.50000000E-01  8.50000000E-01  8.50000000E-01  8.50000000E-01  8.50000000E-01
  8.50000000E-01  8.50000000E-01  8.50000000E-01  8.50000000E-01  8.50000000E-01
  8.50000000E-01  8.50000000E-01  8.50000000E-01  8.50000000E-01  8.50000000E-01
  8.50000000E-01  8.50000000E-01  8.50000000E-01  8.50000000E-01  8.50000000E-01
  8.50000000E-01  8.50000000E-01  8.50000000E-01  8.50000000E-01  8.50000000E-01
  8.50000000E-01  8.50000000E-01  8.50000000E-01  8.50000000E-01  8.50000000E-01
  8.50000000E-01  8.50000000E-01  8.50000000E-01  8.50000000E-01  8.50000000E-01
  8.50000000E-01  8.50000000E-01  8.50000000E-01  8.50000000E-01  8.50000000E-01
  8.50000000E-01  8.50000000E-01  8.50000000E-01  8.50000000E-01  8.50000000E-01
  8.50000000E-01  8.50000000E-01  8.50000000E-01  8.50000000E-01  8.50000000E-01
  8.50000000E-01  8.50000000E-01  8.50000000E-01  8.50000000E-01  8.50000000E-01
  8.50000000E-01  8.50000000E-01  8.50000000E-01  8.50000000E-01  8.50000000E-01
  8.50000000E-01  8.50000000E-01  8.50000000E-01  8.50000000E-01  8.50000000E-01
  8.50000000E-01  8.50000000E-01  8.50000000E-01  8.50000000E-01  8.50000000E-01
  8.50000000E-01  8.50000000E-01  8.50000000E-01  8.50000000E-01  8.50000000E-01
  8.50000000E-01  8.50000000E-01  8.50000000E-01  8.50000000E-01  8.50000000E-01
  8.50000000E-01  8.50000000E-01  8.50000000E-01  8.50000000E-01  8.50000000E-01
  8.50000000E-01  8.50000000E-01  8.50000000E-01  8.50000000E-01  8.50000000E-01
  8.50000000E-01  8.50000000E-01  8.50000000E-01  8.50000000E-01  8.50000000E-01
  8.50000000E-01  8.50000000E-01  8.50000000E-01  8.50000000E-01  8.50000000E-01
  8.50000000E-01  8.50000000E-01  8.50000000E-01  8.50000000E-01  8.50000000E-01
  8.50000000E-01  8.50000000E-01  8.50000000E-01  8.50000000E-01  8.50000000E-01
  8.50000000E-01  8.50000000E-01  8.50000000E-01  8.50000000E-01  8.50000000E-01
  8.50000000E-01  8.50000000E-01  8.50000000E-01  8.50000000E-01  8.50000000E-01
  8.50000000E-01  8.50000000E-01  8.50000000E-01  8.50000000E-01  8.50000000E-01
  8.50000000E-01  8.50000000E-01  8.50000000E-01  8.50000000E-01  8.50000000E-01
  8.50000000E-01  8.50000000E-01  8.50000000E-01  8.50000000E-01  8.50000000E-01
  8.50000000E-01  8.50000000E-01  8.50000000E-01  8.50000000E-01  8.50000000E-01
  8.50000000E-01  8.50000000E-01  8.50000000E-01  8.50000000E-01  8.50000000E-01
  8.50000000E-01  8.50000000E-01  8.50000000E-01  8.50000000E-01  8.50000000E-01
  8.50000000E-01  8.50000000E-01  8.50000000E-01  8.50000000E-01  8.50000000E-01
  8.50000000E-01  8.50000000E-01  8.50000000E-01  8.50000000E-01  8.50000000E-01
  8.50000000E-01  8.50000000E-01  8.50000000E-01  8.50000000E-01  8.50000000E-01
  8.50000000E-01  8.50000000E-01  8.50000000E-01  8.50000000E-01  8.50000000E-01
  8.50000000E-01  8.50000000E-01  8.50000000E-01  8.50000000E-01  8.50000000E-01
  8.50000000E-01  8.50000000E-01  8.50000000E-01  8.50000000E-01  8.50000000E-01
  8.50000000E-01  8.50000000E-01  8.50000000E-01  8.50000000E-01  8.50000000E-01
  8.50000000E-01  8.50000000E-01  8.50000000E-01  8.50000000E-01  8.50000000E-01
  8.50000000E-01  8.50000000E-01  8.50000000E-01  8.50000000E-01  8.50000000E-01
  8.50000000E-01  8.50000000E-01  8.50000000E-01  8.50000000E-01  8.50000000E-01
  8.50000000E-01  8.50000000E-01  8.50000000E-01  8.50000000E-01  8.50000000E-01
  8.50000000E-01  8.50000000E-01  8.50000000E-01  8.50000000E-01  8.50000000E-01
  8.50000000E-01  8.50000000E-01  8.50000000E-01  8.50000000E-01  8.50000000E-01
  8.50000000E-01  8.50000000E-01  8.50000000E-01  8.50000000E-01  8.50000000E-01
  8.50000000E-01  8.50000000E-01  8.50000000E-01  8.50000000E-01  8.50000000E-01
  8.50000000E-01  8.50000000E-01  8.50000000E-01  8.50000000E-01  8.50000000E-01
  8.50000000E-01  8.50000000E-01  8.50000000E-01  8.50000000E-01  8.50000000E-01
  8.50000000E-01  8.50000000E-01  8.50000000E-01  8.50000000E-01  8.50000000E-01
  8.50000000E-01  8.50000000E-01  8.50000000E-01  8.50000000E-01  8.50000000E-01
  8.50000000E-01  8.50000000E-01  8.50000000E-01  8.50000000E-01  8.50000000E-01
  8.50000000E-01  8.50000000E-01  8.50000000E-01  8.50000000E-01  8.50000000E-01
  8.50000000E-01  8.50000000E-01  8.50000000E-01  8.50000000E-01  8.50000000E-01
  8.50000000E-01  8.50000000E-01  8.50000000E-01  8.50000000E-01  8.50000000E-01
  8.50000000E-01  8.50000000E-01  8.50000000E-01  8.50000000E-01  8.50000000E-01
  8.50000000E-01  8.50000000E-01  8.50000000E-01  8.50000000E-01  8.50000000E-01
  8.50000000E-01  8.50000000E-01  8.50000000E-01  8.50000000E-01  8.50000000E-01
  8.50000000E-01  8.50000000E-01  8.50000000E-01  8.50000000E-01  8.50000000E-01
  8.50000000E-01  8.50000000E-01  8.50000000E-01  8.50000000E-01  8.50000000E-01
  8.50000000E-01  8.50000000E-01  8.50000000E-01  8.50000000E-01  8.50000000E-01
  8.50000000E-01  8.50000000E-01  8.50000000E-01  8.50000000E-01  8.50000000E-01
  8.50000000E-01  8.50000000E-01  8.50000000E-01  8.50000000E-01  8.50000000E-01
  8.50000000E-01  8.50000000E-01  8.50000000E-01  8.50000000E-01  8.50000000E-01
  8.50000000E-01  8.50000000E-01  8.50000000E-01  8.50000000E-01  8.50000000E-01
  8.50000000E-01  8.50000000E-01  8.50000000E-01  8.50000000E-01  8.50000000E-01
  8.50000000E-01  8.50000000E-01  8.50000000E-01  8.50000000E-01  8.50000000E-01
  8.50000000E-01  8.50000000E-01  8.50000000E-01  8.50000000E-01  8.50000000E-01
  8.50000000E-01  8.50000000E-01  8.50000000E-01  8.50000000E-01  8.50000000E-01
  8.50000000E-01  8.50000000E-01  8.50000000E-01  8.50000000E-01  8.50000000E-01
  8.50000000E-01  8.50000000E-01  8.50000000E-01  8.50000000E-01  8.50000000E-01
  8.50000000E-01  8.50000000E-01  8.50000000E-01  8.50000000E-01  8.50000000E-01
  8.50000000E-01  8.50000000E-01  8.50000000E-01  8.50000000E-01  8.50000000E-01
  8.50000000E-01  8.50000000E-01  8.50000000E-01  8.50000000E-01  8.50000000E-01
  8.50000000E-01  8.50000000E-01  8.50000000E-01  8.50000000E-01  8.50000000E-01
  8.50000000E-01  8.50000000E-01  8.50000000E-01  8.50000000E-01  8.50000000E-01
  8.50000000E-01  8.50000000E-01  8.50000000E-01  8.50000000E-01  8.50000000E-01
  8.50000000E-01  8.50000000E-01  8.50000000E-01  8.50000000E-01  8.50000000E-01
  8.50000000E-01  8.50000000E-01  8.50000000E-01  8.50000000E-01  8.50000000E-01
  8.50000000E-01  8.50000000E-01  8.50000000E-01  8.50000000E-01  8.50000000E-01
  8.50000000E-01  8.50000000E-01  8.50000000E-01  8.50000000E-01  8.50000000E-01
  8.50000000E-01  8.50000000E-01  8.50000000E-01  8.50000000E-01  8.50000000E-01
  8.50000000E-01  8.50000000E-01  8.50000000E-01  8.50000000E-01  8.50000000E-01
  8.50000000E-01  8.50000000E-01  8.50000000E-01  8.50000000E-01  8.50000000E-01
  8.50000000E-01  8.50000000E-01  8.50000000E-01  8.50000000E-01  8.50000000E-01
  8.50000000E-01  8.50000000E-01  8.50000000E-01  8.50000000E-01  8.50000000E-01
  8.50000000E-01  8.50000000E-01  8.50000000E-01  8.50000000E-01  8.50000000E-01
  8.50000000E-01  8.50000000E-01  8.50000000E-01  8.50000000E-01  8.50000000E-01
  8.50000000E-01  8.50000000E-01  8.50000000E-01  8.50000000E-01  8.50000000E-01
  8.50000000E-01  8.50000000E-01  8.50000000E-01  8.50000000E-01  8.50000000E-01
  8.50000000E-01  8.50000000E-01  8.50000000E-01  8.50000000E-01  8.50000000E-01
  8.50000000E-01  8.50000000E-01  8.50000000E-01  8.50000000E-01  8.50000000E-01
  8.50000000E-01  8.50000000E-01  8.50000000E-01  8.50000000E-01  8.50000000E-01
  8.50000000E-01  8.50000000E-01  8.50000000E-01  8.50000000E-01  8.50000000E-01
  8.50000000E-01  8.50000000E-01  8.50000000E-01  8.50000000E-01  8.50000000E-01
  8.50000000E-01  8.50000000E-01  8.50000000E-01  8.50000000E-01  8.50000000E-01
  8.50000000E-01  8.50000000E-01  8.50000000E-01  8.50000000E-01  8.50000000E-01
  8.50000000E-01  8.50000000E-01  8.50000000E-01  8.50000000E-01  8.50000000E-01
  8.50000000E-01  8.50000000E-01  8.50000000E-01  8.50000000E-01  8.50000000E-01
  8.50000000E-01  8.50000000E-01  8.50000000E-01  8.50000000E-01  8.50000000E-01
  8.50000000E-01  8.50000000E-01  8.50000000E-01  8.50000000E-01  8.50000000E-01
  8.50000000E-01  8.50000000E-01  8.50000000E-01  8.50000000E-01  8.50000000E-01
  8.50000000E-01  8.50000000E-01  8.50000000E-01  8.50000000E-01  8.50000000E-01
  8.50000000E-01  8.50000000E-01  8.50000000E-01  8.50000000E-01  8.50000000E-01
  8.50000000E-01  8.50000000E-01  8.50000000E-01  8.50000000E-01  8.50000000E-01
  8.50000000E-01  8.50000000E-01  8.50000000E-01  8.50000000E-01  8.50000000E-01
  8.50000000E-01  8.50000000E-01  8.50000000E-01  8.50000000E-01  8.50000000E-01
  8.50000000E-01  8.50000000E-01  8.50000000E-01  8.50000000E-01  8.50000000E-01
  8.50000000E-01  8.50000000E-01  8.50000000E-01  8.50000000E-01  8.50000000E-01
  8.50000000E-01  8.50000000E-01  8.50000000E-01  8.50000000E-01  8.50000000E-01
  8.50000000E-01  8.50000000E-01  8.50000000E-01  8.50000000E-01  8.50000000E-01
  8.50000000E-01  8.50000000E-01  8.50000000E-01  8.50000000E-01  8.50000000E-01
  8.50000000E-01  8.50000000E-01  8.50000000E-01  8.50000000E-01  8.50000000E-01
  8.50000000E-01  8.50000000E-01  8.50000000E-01  8.50000000E-01  8.50000000E-01
  8.50000000E-01  8.50000000E-01  8.50000000E-01  8.50000000E-01  8.50000000E-01
  8.50000000E-01  8.50000000E-01  8.50000000E-01  8.50000000E-01  8.50000000E-01
  8.50000000E-01  8.50000000E-01  8.50000000E-01  8.50000000E-01  8.50000000E-01
  8.50000000E-01  8.50000000E-01  8.50000000E-01  8.50000000E-01  8.50000000E-01
  8.50000000E-01  8.50000000E-01  8.50000000E-01  8.50000000E-01  8.50000000E-01
  8.50000000E-01  8.50000000E-01  8.50000000E-01  8.50000000E-01  8.50000000E-01
  8.50000000E-01  8.50000000E-01  8.50000000E-01  8.50000000E-01  8.50000000E-01
  8.50000000E-01  8.50000000E-01  8.50000000E-01  8.50000000E-01  8.50000000E-01
  8.50000000E-01  8.50000000E-01  8.50000000E-01  8.50000000E-01  8.50000000E-01
  8.50000000E-01  8.50000000E-01  8.50000000E-01  8.50000000E-01  8.50000000E-01
  8.50000000E-01  8.50000000E-01  8.50000000E-01  8.50000000E-01  8.50000000E-01
  8.50000000E-01  8.50000000E-01  8.50000000E-01  8.50000000E-01  8.50000000E-01
  8.50000000E-01  8.50000000E-01  8.50000000E-01  8.50000000E-01  8.50000000E-01
  8.50000000E-01  8.50000000E-01  8.50000000E-01  8.50000000E-01  8.50000000E-01
  8.50000000E-01  8.50000000E-01  8.50000000E-01  8.50000000E-01  8.50000000E-01
  8.50000000E-01  8.50000000E-01  8.50000000E-01  8.50000000E-01  8.50000000E-01
  8.50000000E-01  8.50000000E-01  8.50000000E-01  8.50000000E-01  8.50000000E-01
  8.50000000E-01  8.50000000E-01  8.50000000E-01  8.50000000E-01  8.50000000E-01
  8.50000000E-01  8.50000000E-01  8.50000000E-01  8.50000000E-01  8.50000000E-01
  8.50000000E-01  8.50000000E-01  8.50000000E-01  8.50000000E-01  8.50000000E-01
  8.50000000E-01  8.50000000E-01  8.50000000E-01  8.50000000E-01  8.50000000E-01
  8.50000000E-01  8.50000000E-01  8.50000000E-01  8.50000000E-01  8.50000000E-01
  8.50000000E-01  8.50000000E-01  8.50000000E-01  8.50000000E-01  8.50000000E-01
  8.50000000E-01  8.50000000E-01  8.50000000E-01  8.50000000E-01  8.50000000E-01
  8.50000000E-01  8.50000000E-01  8.50000000E-01  8.50000000E-01  8.50000000E-01
  8.50000000E-01  8.50000000E-01  8.50000000E-01  8.50000000E-01  8.50000000E-01
  8.50000000E-01  8.50000000E-01  8.50000000E-01  8.50000000E-01  8.50000000E-01
  8.50000000E-01  8.50000000E-01  8.50000000E-01  8.50000000E-01  8.50000000E-01
  8.50000000E-01  8.50000000E-01  8.50000000E-01  8.50000000E-01  8.50000000E-01
  8.50000000E-01  8.50000000E-01  8.50000000E-01  8.50000000E-01  8.50000000E-01
  8.50000000E-01  8.50000000E-01  8.50000000E-01  8.50000000E-01  8.50000000E-01
  8.50000000E-01  8.50000000E-01  8.50000000E-01  8.50000000E-01  8.50000000E-01
  8.50000000E-01  8.50000000E-01  8.50000000E-01  8.50000000E-01  8.50000000E-01
  8.50000000E-01  8.50000000E-01  8.50000000E-01  8.50000000E-01  8.50000000E-01
  8.50000000E-01  8.50000000E-01  8.50000000E-01  8.50000000E-01  8.50000000E-01
  8.50000000E-01  8.50000000E-01  8.50000000E-01  8.50000000E-01  8.50000000E-01
  8.50000000E-01  8.50000000E-01  8.50000000E-01  8.50000000E-01  8.50000000E-01
  8.50000000E-01  8.50000000E-01  8.50000000E-01  8.50000000E-01  8.50000000E-01
  8.50000000E-01  8.50000000E-01  8.50000000E-01  8.50000000E-01  8.50000000E-01
  8.50000000E-01  8.50000000E-01  8.50000000E-01  8.50000000E-01  8.50000000E-01
  8.50000000E-01  8.50000000E-01  8.50000000E-01  8.50000000E-01  8.50000000E-01
  8.50000000E-01  8.50000000E-01  8.50000000E-01  8.50000000E-01  8.50000000E-01
  8.50000000E-01  8.50000000E-01  8.50000000E-01  8.50000000E-01  8.50000000E-01
  8.50000000E-01  8.50000000E-01  8.50000000E-01  8.50000000E-01  8.50000000E-01
  8.50000000E-01  8.50000000E-01  8.50000000E-01  8.50000000E-01  8.50000000E-01
  8.50000000E-01  8.50000000E-01  8.50000000E-01  8.50000000E-01  8.50000000E-01
  8.50000000E-01  8.50000000E-01  8.50000000E-01  8.50000000E-01  8.50000000E-01
  8.50000000E-01  8.50000000E-01  8.50000000E-01  8.50000000E-01  8.50000000E-01
  8.50000000E-01  8.50000000E-01  8.50000000E-01  8.50000000E-01  8.50000000E-01
  8.50000000E-01  8.50000000E-01  8.50000000E-01  8.50000000E-01  8.50000000E-01
  8.50000000E-01  8.50000000E-01  8.50000000E-01  8.50000000E-01  8.50000000E-01
  8.50000000E-01  8.50000000E-01  8.50000000E-01  8.50000000E-01  8.50000000E-01
  8.50000000E-01  8.50000000E-01  8.50000000E-01  8.50000000E-01  8.50000000E-01
  8.50000000E-01  8.50000000E-01  8.50000000E-01  8.50000000E-01  8.50000000E-01
  8.50000000E-01  8.50000000E-01  8.50000000E-01  8.50000000E-01  8.50000000E-01
  8.50000000E-01  8.50000000E-01  8.50000000E-01  8.50000000E-01  8.50000000E-01
  8.50000000E-01  8.50000000E-01  8.50000000E-01  8.50000000E-01  8.50000000E-01
  8.50000000E-01  8.50000000E-01  8.50000000E-01  8.50000000E-01  8.50000000E-01
  8.50000000E-01  8.50000000E-01  8.50000000E-01  8.50000000E-01  8.50000000E-01
  8.50000000E-01  8.50000000E-01  8.50000000E-01  8.50000000E-01  8.50000000E-01
  8.50000000E-01  8.50000000E-01  8.50000000E-01  8.50000000E-01  8.50000000E-01
  8.50000000E-01  8.50000000E-01  8.50000000E-01  8.50000000E-01  8.50000000E-01
  8.50000000E-01  8.50000000E-01  8.50000000E-01  8.50000000E-01  8.50000000E-01
  8.50000000E-01  8.50000000E-01  8.50000000E-01  8.50000000E-01  8.50000000E-01
  8.50000000E-01  8.50000000E-01  8.50000000E-01  8.50000000E-01  8.50000000E-01
  8.50000000E-01  8.50000000E-01  8.50000000E-01  8.50000000E-01  8.50000000E-01
  8.50000000E-01  8.50000000E-01  8.50000000E-01  8.50000000E-01  8.50000000E-01
  8.50000000E-01  8.50000000E-01  8.50000000E-01  8.50000000E-01  8.50000000E-01
  8.50000000E-01  8.50000000E-01  8.50000000E-01  8.50000000E-01  8.50000000E-01
  8.50000000E-01  8.50000000E-01  8.50000000E-01  8.50000000E-01  8.50000000E-01
  8.50000000E-01  8.50000000E-01  8.50000000E-01  8.50000000E-01  8.50000000E-01
  8.50000000E-01  8.50000000E-01  8.50000000E-01  8.50000000E-01  8.50000000E-01
  8.50000000E-01  8.50000000E-01  8.50000000E-01  8.50000000E-01  8.50000000E-01
  8.50000000E-01  8.50000000E-01  8.50000000E-01  8.50000000E-01  8.50000000E-01
  8.50000000E-01  8.50000000E-01  8.50000000E-01  8.50000000E-01  8.50000000E-01
  8.50000000E-01  8.50000000E-01  8.50000000E-01  8.50000000E-01  8.50000000E-01
  8.50000000E-01  8.50000000E-01  8.50000000E-01  8.50000000E-01  8.50000000E-01
  8.50000000E-01  8.50000000E-01  8.50000000E-01  8.50000000E-01  8.50000000E-01
  8.50000000E-01  8.50000000E-01  8.50000000E-01  8.50000000E-01  8.50000000E-01
  8.50000000E-01  8.50000000E-01  8.50000000E-01  8.50000000E-01  8.50000000E-01
  8.50000000E-01  8.50000000E-01  8.50000000E-01  8.50000000E-01  8.50000000E-01
  8.50000000E-01  8.50000000E-01  8.50000000E-01  8.50000000E-01  8.50000000E-01
  8.50000000E-01  8.50000000E-01  8.50000000E-01  8.50000000E-01  8.50000000E-01
  8.50000000E-01  8.50000000E-01  8.50000000E-01  8.50000000E-01  8.50000000E-01
  8.50000000E-01  8.50000000E-01  8.50000000E-01  8.50000000E-01  8.50000000E-01
  8.50000000E-01  8.50000000E-01  8.50000000E-01  8.50000000E-01  8.50000000E-01
  8.50000000E-01  8.50000000E-01  8.50000000E-01  8.50000000E-01  8.50000000E-01
  8.50000000E-01  8.50000000E-01  8.50000000E-01  8.50000000E-01  8.50000000E-01
  8.50000000E-01  8.50000000E-01  8.50000000E-01  8.50000000E-01  8.50000000E-01
  8.50000000E-01  8.50000000E-01  8.50000000E-01  8.50000000E-01  8.50000000E-01
  8.50000000E-01  8.50000000E-01  8.50000000E-01  8.50000000E-01  8.50000000E-01
  8.50000000E-01  8.50000000E-01  8.50000000E-01  8.50000000E-01  8.50000000E-01
  8.50000000E-01  8.50000000E-01  8.50000000E-01  8.50000000E-01  8.50000000E-01
  8.50000000E-01  8.50000000E-01  8.50000000E-01  8.50000000E-01  8.50000000E-01
  8.50000000E-01  8.50000000E-01  8.50000000E-01  8.50000000E-01  8.50000000E-01
  8.50000000E-01  8.50000000E-01  8.50000000E-01  8.50000000E-01  8.50000000E-01
  8.50000000E-01  8.50000000E-01  8.50000000E-01  8.50000000E-01  8.50000000E-01
  8.50000000E-01  8.50000000E-01  8.50000000E-01  8.50000000E-01  8.50000000E-01
  8.50000000E-01  8.50000000E-01  8.50000000E-01  8.50000000E-01  8.50000000E-01
  8.50000000E-01  8.50000000E-01  8.50000000E-01  8.50000000E-01  8.50000000E-01
  8.50000000E-01  8.50000000E-01  8.50000000E-01  8.50000000E-01  8.50000000E-01
  8.50000000E-01  8.50000000E-01  8.50000000E-01  8.50000000E-01  8.50000000E-01
  8.50000000E-01  8.50000000E-01  8.50000000E-01  8.50000000E-01  8.50000000E-01
  8.50000000E-01  8.50000000E-01  8.50000000E-01  8.50000000E-01  8.50000000E-01
  8.50000000E-01  8.50000000E-01  8.50000000E-01  8.50000000E-01  8.50000000E-01
  8.50000000E-01  8.50000000E-01  8.50000000E-01  8.50000000E-01  8.50000000E-01
  8.50000000E-01  8.50000000E-01  8.50000000E-01  8.50000000E-01  8.50000000E-01
  8.50000000E-01  8.50000000E-01  8.50000000E-01  8.50000000E-01  8.50000000E-01
  8.50000000E-01  8.50000000E-01  8.50000000E-01  8.50000000E-01  8.50000000E-01
  8.50000000E-01  8.50000000E-01  8.50000000E-01  8.50000000E-01  8.50000000E-01
  8.50000000E-01  8.50000000E-01  8.50000000E-01  8.50000000E-01  8.50000000E-01
  8.50000000E-01  8.50000000E-01  8.50000000E-01  8.50000000E-01  8.50000000E-01
  8.50000000E-01  8.50000000E-01  8.50000000E-01  8.50000000E-01  8.50000000E-01
  8.50000000E-01  8.50000000E-01  8.50000000E-01  8.50000000E-01  8.50000000E-01
  8.50000000E-01  8.50000000E-01  8.50000000E-01  8.50000000E-01  8.50000000E-01
  8.50000000E-01  8.50000000E-01  8.50000000E-01  8.50000000E-01  8.50000000E-01
  8.50000000E-01  8.50000000E-01  8.50000000E-01  8.50000000E-01  8.50000000E-01
  8.50000000E-01  8.50000000E-01  8.50000000E-01  8.50000000E-01  8.50000000E-01
  8.50000000E-01  8.50000000E-01  8.50000000E-01  8.50000000E-01  8.50000000E-01
  8.50000000E-01  8.50000000E-01  8.50000000E-01  8.50000000E-01  8.50000000E-01
  8.50000000E-01  8.50000000E-01  8.50000000E-01  8.50000000E-01  8.50000000E-01
  8.50000000E-01  8.50000000E-01  8.50000000E-01  8.50000000E-01  8.50000000E-01
  8.50000000E-01  8.50000000E-01  8.50000000E-01  8.50000000E-01  8.50000000E-01
  8.50000000E-01  8.50000000E-01  8.50000000E-01  8.50000000E-01  8.50000000E-01
  8.50000000E-01  8.50000000E-01  8.50000000E-01  8.50000000E-01  8.50000000E-01
  8.50000000E-01  8.50000000E-01  8.50000000E-01  8.50000000E-01  8.50000000E-01
  8.50000000E-01  8.50000000E-01  8.50000000E-01  8.50000000E-01  8.50000000E-01
  8.50000000E-01  8.50000000E-01  8.50000000E-01  8.50000000E-01  8.50000000E-01
  8.50000000E-01  8.50000000E-01  8.50000000E-01  8.50000000E-01  8.50000000E-01
  8.50000000E-01  8.50000000E-01  8.50000000E-01  8.50000000E-01  8.50000000E-01
  8.50000000E-01  8.50000000E-01  8.50000000E-01  8.50000000E-01  8.50000000E-01
  8.50000000E-01  8.50000000E-01  8.50000000E-01  8.50000000E-01  8.50000000E-01
  8.50000000E-01  8.50000000E-01  8.50000000E-01  8.50000000E-01  8.50000000E-01
  8.50000000E-01  8.50000000E-01  8.50000000E-01  8.50000000E-01  8.50000000E-01
  8.50000000E-01  8.50000000E-01  8.50000000E-01  8.50000000E-01  8.50000000E-01
  8.50000000E-01  8.50000000E-01  8.50000000E-01  8.50000000E-01  8.50000000E-01
  8.50000000E-01  8.50000000E-01  8.50000000E-01  8.50000000E-01  8.50000000E-01
  8.50000000E-01  8.50000000E-01  8.50000000E-01  8.50000000E-01  8.50000000E-01
  8.50000000E-01  8.50000000E-01  8.50000000E-01  8.50000000E-01  8.50000000E-01
  8.50000000E-01  8.50000000E-01  8.50000000E-01  8.50000000E-01  8.50000000E-01
  8.50000000E-01  8.50000000E-01  8.50000000E-01  8.50000000E-01  8.50000000E-01
  8.50000000E-01  8.50000000E-01  8.50000000E-01  8.50000000E-01  8.50000000E-01
  8.50000000E-01  8.50000000E-01  8.50000000E-01  8.50000000E-01  8.50000000E-01
  8.50000000E-01  8.50000000E-01  8.50000000E-01  8.50000000E-01  8.50000000E-01
  8.50000000E-01  8.50000000E-01  8.50000000E-01  8.50000000E-01  8.50000000E-01
  8.50000000E-01  8.50000000E-01  8.50000000E-01  8.50000000E-01  8.50000000E-01
  8.50000000E-01  8.50000000E-01  8.50000000E-01  8.50000000E-01  8.50000000E-01
  8.50000000E-01  8.50000000E-01  8.50000000E-01  8.50000000E-01  8.50000000E-01
  8.50000000E-01  8.50000000E-01  8.50000000E-01  8.50000000E-01  8.50000000E-01
  8.50000000E-01  8.50000000E-01  8.50000000E-01  8.50000000E-01  8.50000000E-01
  8.50000000E-01  8.50000000E-01  8.50000000E-01  8.50000000E-01  8.50000000E-01
  8.50000000E-01  8.50000000E-01  8.50000000E-01  8.50000000E-01  8.50000000E-01
  8.50000000E-01  8.50000000E-01  8.50000000E-01  8.50000000E-01  8.50000000E-01
  8.50000000E-01  8.50000000E-01  8.50000000E-01  8.50000000E-01  8.50000000E-01
  8.50000000E-01  8.50000000E-01  8.50000000E-01  8.50000000E-01  8.50000000E-01
  8.50000000E-01  8.50000000E-01  8.50000000E-01  8.50000000E-01  8.50000000E-01
  8.50000000E-01  8.50000000E-01  8.50000000E-01  8.50000000E-01  8.50000000E-01
  8.50000000E-01  8.50000000E-01  8.50000000E-01  8.50000000E-01  8.50000000E-01
  8.50000000E-01  8.50000000E-01  8.50000000E-01  8.50000000E-01  8.50000000E-01
  8.50000000E-01  8.50000000E-01  8.50000000E-01  8.50000000E-01  8.50000000E-01
  8.50000000E-01  8.50000000E-01  8.50000000E-01  8.50000000E-01  8.50000000E-01
  8.50000000E-01  8.50000000E-01  8.50000000E-01  8.50000000E-01  8.50000000E-01
  8.50000000E-01  8.50000000E-01  8.50000000E-01  8.50000000E-01  8.50000000E-01
  8.50000000E-01  8.50000000E-01  8.50000000E-01  8.50000000E-01  8.50000000E-01
  8.50000000E-01  8.50000000E-01  8.50000000E-01  8.50000000E-01  8.50000000E-01
  8.50000000E-01  8.50000000E-01  8.50000000E-01  8.50000000E-01  8.50000000E-01
  8.50000000E-01  8.50000000E-01  8.50000000E-01  8.50000000E-01  8.50000000E-01
  8.50000000E-01  8.50000000E-01  8.50000000E-01  8.50000000E-01  8.50000000E-01
  8.50000000E-01  8.50000000E-01  8.50000000E-01  8.50000000E-01  8.50000000E-01
  8.50000000E-01  8.50000000E-01  8.50000000E-01  8.50000000E-01  8.50000000E-01
  8.50000000E-01  8.50000000E-01  8.50000000E-01  8.50000000E-01  8.50000000E-01
  8.50000000E-01  8.50000000E-01  8.50000000E-01  8.50000000E-01  8.50000000E-01
  8.50000000E-01  8.50000000E-01  8.50000000E-01  8.50000000E-01  8.50000000E-01
  8.50000000E-01  8.50000000E-01  8.50000000E-01  8.50000000E-01  8.50000000E-01
  8.50000000E-01  8.50000000E-01  8.50000000E-01  8.50000000E-01  8.50000000E-01
  8.50000000E-01  8.50000000E-01  8.50000000E-01  8.50000000E-01  8.50000000E-01
  8.50000000E-01  8.50000000E-01  8.50000000E-01  8.50000000E-01  8.50000000E-01
  8.50000000E-01  8.50000000E-01  8.50000000E-01  8.50000000E-01  8.50000000E-01
  8.50000000E-01  8.50000000E-01  8.50000000E-01  8.50000000E-01  8.50000000E-01
  8.50000000E-01  8.50000000E-01  8.50000000E-01  8.50000000E-01  8.50000000E-01
  8.50000000E-01  8.50000000E-01  8.50000000E-01  8.50000000E-01  8.50000000E-01
  8.50000000E-01  8.50000000E-01  8.50000000E-01  8.50000000E-01  8.50000000E-01
  8.50000000E-01  8.50000000E-01  8.50000000E-01  8.50000000E-01  8.50000000E-01
  8.50000000E-01  8.50000000E-01  8.50000000E-01  8.50000000E-01  8.50000000E-01
  8.50000000E-01  8.50000000E-01  8.50000000E-01  8.50000000E-01  8.50000000E-01
  8.50000000E-01  8.50000000E-01  8.50000000E-01  8.50000000E-01  8.50000000E-01
  8.50000000E-01  8.50000000E-01  8.50000000E-01  8.50000000E-01  8.50000000E-01
  8.50000000E-01  8.50000000E-01  8.50000000E-01  8.50000000E-01  8.50000000E-01
  8.50000000E-01  8.50000000E-01  8.50000000E-01  8.50000000E-01  8.50000000E-01
  8.50000000E-01  8.50000000E-01  8.50000000E-01  8.50000000E-01  8.50000000E-01
  8.50000000E-01  8.50000000E-01  8.50000000E-01  8.50000000E-01  8.50000000E-01
  8.50000000E-01  8.50000000E-01  8.50000000E-01  8.50000000E-01  8.50000000E-01
  8.50000000E-01  8.50000000E-01  8.50000000E-01  8.50000000E-01  8.50000000E-01
  8.50000000E-01  8.50000000E-01  8.50000000E-01  8.50000000E-01  8.50000000E-01
  8.50000000E-01  8.50000000E-01  8.50000000E-01  8.50000000E-01  8.50000000E-01
  8.50000000E-01  8.50000000E-01  8.50000000E-01  8.50000000E-01  8.50000000E-01
  8.50000000E-01  8.50000000E-01  8.50000000E-01  8.50000000E-01  8.50000000E-01
  8.50000000E-01  8.50000000E-01  8.50000000E-01  8.50000000E-01  8.50000000E-01
  8.50000000E-01  8.50000000E-01  8.50000000E-01  8.50000000E-01  8.50000000E-01
  8.50000000E-01  8.50000000E-01  8.50000000E-01  8.50000000E-01  8.50000000E-01
  8.50000000E-01  8.50000000E-01  8.50000000E-01  8.50000000E-01  8.50000000E-01
  8.50000000E-01  8.50000000E-01  8.50000000E-01  8.50000000E-01  8.50000000E-01
  8.50000000E-01  8.50000000E-01  8.50000000E-01  8.50000000E-01  8.50000000E-01
  8.50000000E-01  8.50000000E-01  8.50000000E-01  8.50000000E-01  8.50000000E-01
  8.50000000E-01  8.50000000E-01  8.50000000E-01  8.50000000E-01  8.50000000E-01
  8.50000000E-01  8.50000000E-01  8.50000000E-01  8.50000000E-01  8.50000000E-01
  8.50000000E-01  8.50000000E-01  8.50000000E-01  8.50000000E-01  8.50000000E-01
  8.50000000E-01  8.50000000E-01  8.50000000E-01  8.50000000E-01  8.50000000E-01
  8.50000000E-01  8.50000000E-01  8.50000000E-01  8.50000000E-01  8.50000000E-01
  8.50000000E-01  8.50000000E-01  8.50000000E-01  8.50000000E-01  8.50000000E-01
  8.50000000E-01  8.50000000E-01  8.50000000E-01  8.50000000E-01  8.50000000E-01
  8.50000000E-01  8.50000000E-01  8.50000000E-01  8.50000000E-01  8.50000000E-01
  8.50000000E-01  8.50000000E-01  8.50000000E-01  8.50000000E-01  8.50000000E-01
  8.50000000E-01  8.50000000E-01  8.50000000E-01  8.50000000E-01  8.50000000E-01
  8.50000000E-01  8.50000000E-01  8.50000000E-01  8.50000000E-01  8.50000000E-01
  8.50000000E-01  8.50000000E-01  8.50000000E-01  8.50000000E-01  8.50000000E-01
  8.50000000E-01  8.50000000E-01  8.50000000E-01  8.50000000E-01  8.50000000E-01
  8.50000000E-01  8.50000000E-01  8.50000000E-01  8.50000000E-01  8.50000000E-01
  8.50000000E-01  8.50000000E-01  8.50000000E-01  8.50000000E-01  8.50000000E-01
  8.50000000E-01  8.50000000E-01  8.50000000E-01  8.50000000E-01  8.50000000E-01
  8.50000000E-01  8.50000000E-01  8.50000000E-01  8.50000000E-01  8.50000000E-01
  8.50000000E-01  8.50000000E-01  8.50000000E-01  8.50000000E-01  8.50000000E-01
  8.50000000E-01  8.50000000E-01  8.50000000E-01  8.50000000E-01  8.50000000E-01
  8.50000000E-01  8.50000000E-01  8.50000000E-01  8.50000000E-01  8.50000000E-01
  8.50000000E-01  8.50000000E-01  8.50000000E-01  8.50000000E-01  8.50000000E-01
  8.50000000E-01  8.50000000E-01  8.50000000E-01  8.50000000E-01  8.50000000E-01
  8.50000000E-01  8.50000000E-01  8.50000000E-01  8.50000000E-01  8.50000000E-01
  8.50000000E-01  8.50000000E-01  8.50000000E-01  8.50000000E-01  8.50000000E-01
  8.50000000E-01  8.50000000E-01  8.50000000E-01  8.50000000E-01  8.50000000E-01
  8.50000000E-01  8.50000000E-01  8.50000000E-01  8.50000000E-01  8.50000000E-01
  8.50000000E-01  8.50000000E-01  8.50000000E-01  8.50000000E-01  8.50000000E-01
  8.50000000E-01  8.50000000E-01  8.50000000E-01  8.50000000E-01  8.50000000E-01
  8.50000000E-01  8.50000000E-01  8.50000000E-01  8.50000000E-01  8.50000000E-01
  8.50000000E-01  8.50000000E-01  8.50000000E-01  8.50000000E-01  8.50000000E-01
  8.50000000E-01  8.50000000E-01  8.50000000E-01  8.50000000E-01  8.50000000E-01
  8.50000000E-01  8.50000000E-01  8.50000000E-01  8.50000000E-01  8.50000000E-01
  8.50000000E-01  8.50000000E-01  8.50000000E-01  8.50000000E-01  8.50000000E-01
  8.50000000E-01  8.50000000E-01  8.50000000E-01  8.50000000E-01  8.50000000E-01
  8.50000000E-01  8.50000000E-01  8.50000000E-01  8.50000000E-01  8.50000000E-01
  8.50000000E-01  8.50000000E-01  8.50000000E-01  8.50000000E-01  8.50000000E-01
  8.50000000E-01  8.50000000E-01  8.50000000E-01  8.50000000E-01  8.50000000E-01
  8.50000000E-01  8.50000000E-01  8.50000000E-01  8.50000000E-01  8.50000000E-01
  8.50000000E-01  8.50000000E-01  8.50000000E-01  8.50000000E-01  8.50000000E-01
  8.50000000E-01  8.50000000E-01  8.50000000E-01  8.50000000E-01  8.50000000E-01
  8.50000000E-01  8.50000000E-01  8.50000000E-01  8.50000000E-01  8.50000000E-01
  8.50000000E-01  8.50000000E-01  8.50000000E-01  8.50000000E-01  8.50000000E-01
  8.50000000E-01  8.50000000E-01  8.50000000E-01  8.50000000E-01  8.50000000E-01
  8.50000000E-01  8.50000000E-01  8.50000000E-01  8.50000000E-01  8.50000000E-01
  8.50000000E-01  8.50000000E-01  8.50000000E-01  8.50000000E-01  8.50000000E-01
  8.50000000E-01  8.50000000E-01  8.50000000E-01  8.50000000E-01  8.50000000E-01
  8.50000000E-01  8.50000000E-01  8.50000000E-01  8.50000000E-01  8.50000000E-01
  8.50000000E-01  8.50000000E-01  8.50000000E-01  8.50000000E-01  8.50000000E-01
  8.50000000E-01  8.50000000E-01  8.50000000E-01  8.50000000E-01  8.50000000E-01
  8.50000000E-01  8.50000000E-01  8.50000000E-01  8.50000000E-01  8.50000000E-01
  8.50000000E-01  8.50000000E-01  8.50000000E-01  8.50000000E-01  8.50000000E-01
  8.50000000E-01  8.50000000E-01  8.50000000E-01  8.50000000E-01  8.50000000E-01
  8.50000000E-01  8.50000000E-01  8.50000000E-01  8.50000000E-01  8.50000000E-01
  8.50000000E-01  8.50000000E-01  8.50000000E-01  8.50000000E-01  8.50000000E-01
  8.50000000E-01  8.50000000E-01  8.50000000E-01  8.50000000E-01  8.50000000E-01
  8.50000000E-01  8.50000000E-01  8.50000000E-01  8.50000000E-01  8.50000000E-01
  8.50000000E-01  8.50000000E-01  8.50000000E-01  8.50000000E-01  8.50000000E-01
  8.50000000E-01  8.50000000E-01  8.50000000E-01  8.50000000E-01  8.50000000E-01
  8.50000000E-01  8.50000000E-01  8.50000000E-01  8.50000000E-01  8.50000000E-01
  8.50000000E-01  8.50000000E-01  8.50000000E-01  8.50000000E-01  8.50000000E-01
  8.50000000E-01  8.50000000E-01  8.50000000E-01  8.50000000E-01  8.50000000E-01
  8.50000000E-01  8.50000000E-01  8.50000000E-01  8.50000000E-01  8.50000000E-01
  8.50000000E-01  8.50000000E-01  8.50000000E-01  8.50000000E-01  8.50000000E-01
  8.50000000E-01  8.50000000E-01  8.50000000E-01  8.50000000E-01  8.50000000E-01
  8.50000000E-01  8.50000000E-01  8.50000000E-01  8.50000000E-01  8.50000000E-01
  8.50000000E-01  8.50000000E-01  8.50000000E-01  8.50000000E-01  8.50000000E-01
  8.50000000E-01  8.50000000E-01  8.50000000E-01  8.50000000E-01  8.50000000E-01
  8.50000000E-01  8.50000000E-01  8.50000000E-01  8.50000000E-01  8.50000000E-01
  8.50000000E-01  8.50000000E-01  8.50000000E-01  8.50000000E-01  8.50000000E-01
  8.50000000E-01  8.50000000E-01  8.50000000E-01  8.50000000E-01  8.50000000E-01
  8.50000000E-01  8.50000000E-01  8.50000000E-01  8.50000000E-01  8.50000000E-01
  8.50000000E-01  8.50000000E-01  8.50000000E-01  8.50000000E-01  8.50000000E-01
  8.50000000E-01  8.50000000E-01  8.50000000E-01  8.50000000E-01  8.50000000E-01
  8.50000000E-01  8.50000000E-01  8.50000000E-01  8.50000000E-01  8.50000000E-01
  8.50000000E-01  8.50000000E-01  8.50000000E-01  8.50000000E-01  8.50000000E-01
  8.50000000E-01  8.50000000E-01  8.50000000E-01  8.50000000E-01  8.50000000E-01
  8.50000000E-01  8.50000000E-01  8.50000000E-01  8.50000000E-01  8.50000000E-01
  8.50000000E-01  8.50000000E-01  8.50000000E-01  8.50000000E-01  8.50000000E-01
  8.50000000E-01  8.50000000E-01  8.50000000E-01  8.50000000E-01  8.50000000E-01
  8.50000000E-01  8.50000000E-01  8.50000000E-01  8.50000000E-01  8.50000000E-01
  8.50000000E-01  8.50000000E-01  8.50000000E-01  8.50000000E-01  8.50000000E-01
  8.50000000E-01  8.50000000E-01  8.50000000E-01  8.50000000E-01  8.50000000E-01
  8.50000000E-01  8.50000000E-01  8.50000000E-01  8.50000000E-01  8.50000000E-01
  8.50000000E-01  8.50000000E-01  8.50000000E-01  8.50000000E-01  8.50000000E-01
  8.50000000E-01  8.50000000E-01  8.50000000E-01  8.50000000E-01  8.50000000E-01
  8.50000000E-01  8.50000000E-01  8.50000000E-01  8.50000000E-01  8.50000000E-01
  8.50000000E-01  8.50000000E-01  8.50000000E-01  8.50000000E-01  8.50000000E-01
  8.50000000E-01  8.50000000E-01  8.50000000E-01  8.50000000E-01  8.50000000E-01
  8.50000000E-01  8.50000000E-01  8.50000000E-01  8.50000000E-01  8.50000000E-01
  8.50000000E-01  8.50000000E-01  8.50000000E-01  8.50000000E-01  8.50000000E-01
  8.50000000E-01  8.50000000E-01  8.50000000E-01  8.50000000E-01  8.50000000E-01
  8.50000000E-01  8.50000000E-01  8.50000000E-01  8.50000000E-01  8.50000000E-01
  8.50000000E-01  8.50000000E-01  8.50000000E-01  8.50000000E-01  8.50000000E-01
  8.50000000E-01  8.50000000E-01  8.50000000E-01  8.50000000E-01  8.50000000E-01
  8.50000000E-01  8.50000000E-01  8.50000000E-01  8.50000000E-01  8.50000000E-01
  8.50000000E-01  8.50000000E-01  8.50000000E-01  8.50000000E-01  8.50000000E-01
  8.50000000E-01  8.50000000E-01  8.50000000E-01  8.50000000E-01  8.50000000E-01
  8.50000000E-01  8.50000000E-01  8.50000000E-01  8.50000000E-01  8.50000000E-01
  8.50000000E-01  8.50000000E-01  8.50000000E-01  8.50000000E-01  8.50000000E-01
  8.50000000E-01  8.50000000E-01  8.50000000E-01  8.50000000E-01  8.50000000E-01
  8.50000000E-01  8.50000000E-01  8.50000000E-01  8.50000000E-01  8.50000000E-01
  8.50000000E-01  8.50000000E-01  8.50000000E-01  8.50000000E-01  8.50000000E-01
  8.50000000E-01  8.50000000E-01  8.50000000E-01  8.50000000E-01  8.50000000E-01
  8.50000000E-01  8.50000000E-01  8.50000000E-01  8.50000000E-01  8.50000000E-01
  8.50000000E-01  8.50000000E-01  8.50000000E-01  8.50000000E-01  8.50000000E-01
  8.50000000E-01  8.50000000E-01  8.50000000E-01  8.50000000E-01  8.50000000E-01
  8.50000000E-01  8.50000000E-01  8.50000000E-01  8.50000000E-01  8.50000000E-01
  8.50000000E-01  8.50000000E-01  8.50000000E-01  8.50000000E-01  8.50000000E-01
  8.50000000E-01  8.50000000E-01  8.50000000E-01  8.50000000E-01  8.50000000E-01
  8.50000000E-01  8.50000000E-01  8.50000000E-01  8.50000000E-01  8.50000000E-01
  8.50000000E-01  8.50000000E-01  8.50000000E-01  8.50000000E-01  8.50000000E-01
  8.50000000E-01  8.50000000E-01  8.50000000E-01  8.50000000E-01  8.50000000E-01
  8.50000000E-01  8.50000000E-01  8.50000000E-01  8.50000000E-01  8.50000000E-01
  8.50000000E-01  8.50000000E-01  8.50000000E-01  8.50000000E-01  8.50000000E-01
  8.50000000E-01  8.50000000E-01  8.50000000E-01  8.50000000E-01  8.50000000E-01
  8.50000000E-01  8.50000000E-01  8.50000000E-01  8.50000000E-01  8.50000000E-01
  8.50000000E-01  8.50000000E-01  8.50000000E-01  8.50000000E-01  8.50000000E-01
  8.50000000E-01  8.50000000E-01  8.50000000E-01  8.50000000E-01  8.50000000E-01
  8.50000000E-01  8.50000000E-01  8.50000000E-01  8.50000000E-01  8.50000000E-01
  8.50000000E-01  8.50000000E-01  8.50000000E-01  8.50000000E-01  8.50000000E-01
  8.50000000E-01  8.50000000E-01  8.50000000E-01  8.50000000E-01  8.50000000E-01
  8.50000000E-01  8.50000000E-01  8.50000000E-01  8.50000000E-01  8.50000000E-01
  8.50000000E-01  8.50000000E-01  8.50000000E-01  8.50000000E-01  8.50000000E-01
  8.50000000E-01  8.50000000E-01  8.50000000E-01  8.50000000E-01  8.50000000E-01
  8.50000000E-01  8.50000000E-01  8.50000000E-01  8.50000000E-01  8.50000000E-01
  8.50000000E-01  8.50000000E-01  8.50000000E-01  8.50000000E-01  8.50000000E-01
  8.50000000E-01  8.50000000E-01  8.50000000E-01  8.50000000E-01  8.50000000E-01
  8.50000000E-01  8.50000000E-01  8.50000000E-01  8.50000000E-01  8.50000000E-01
  8.50000000E-01  8.50000000E-01  8.50000000E-01  8.50000000E-01  8.50000000E-01
  8.50000000E-01  8.50000000E-01  8.50000000E-01  8.50000000E-01  8.50000000E-01
  8.50000000E-01  8.50000000E-01  8.50000000E-01  8.50000000E-01  8.50000000E-01
  8.50000000E-01  8.50000000E-01  8.50000000E-01  8.50000000E-01  8.50000000E-01
  8.50000000E-01  8.50000000E-01  8.50000000E-01  8.50000000E-01  8.50000000E-01
  8.50000000E-01  8.50000000E-01  8.50000000E-01  8.50000000E-01  8.50000000E-01
  8.50000000E-01  8.50000000E-01  8.50000000E-01  8.50000000E-01  8.50000000E-01
  8.50000000E-01  8.50000000E-01  8.50000000E-01  8.50000000E-01  8.50000000E-01
  8.50000000E-01  8.50000000E-01  8.50000000E-01  8.50000000E-01  8.50000000E-01
  8.50000000E-01  8.50000000E-01  8.50000000E-01  8.50000000E-01  8.50000000E-01
  8.50000000E-01  8.50000000E-01  8.50000000E-01  8.50000000E-01  8.50000000E-01
  8.50000000E-01  8.50000000E-01  8.50000000E-01  8.50000000E-01  8.50000000E-01
  8.50000000E-01  8.50000000E-01  8.50000000E-01  8.50000000E-01  8.50000000E-01
  8.50000000E-01  8.50000000E-01  8.50000000E-01  8.50000000E-01  8.50000000E-01
  8.50000000E-01  8.50000000E-01  8.50000000E-01  8.50000000E-01  8.50000000E-01
  8.50000000E-01  8.50000000E-01  8.50000000E-01  8.50000000E-01  8.50000000E-01
  8.50000000E-01  8.50000000E-01  8.50000000E-01  8.50000000E-01  8.50000000E-01
  8.50000000E-01  8.50000000E-01  8.50000000E-01  8.50000000E-01  8.50000000E-01
  8.50000000E-01  8.50000000E-01  8.50000000E-01  8.50000000E-01  8.50000000E-01
  8.50000000E-01  8.50000000E-01  8.50000000E-01  8.50000000E-01  8.50000000E-01
  8.50000000E-01  8.50000000E-01  8.50000000E-01  8.50000000E-01  8.50000000E-01
  8.50000000E-01  8.50000000E-01  8.50000000E-01  8.50000000E-01  8.50000000E-01
  8.50000000E-01  8.50000000E-01  8.50000000E-01  8.50000000E-01  8.50000000E-01
  8.50000000E-01  8.50000000E-01  8.50000000E-01  8.50000000E-01  8.50000000E-01
  8.50000000E-01  8.50000000E-01  8.50000000E-01  8.50000000E-01  8.50000000E-01
  8.50000000E-01  8.50000000E-01  8.50000000E-01  8.50000000E-01  8.50000000E-01
  8.50000000E-01  8.50000000E-01  8.50000000E-01  8.50000000E-01  8.50000000E-01
  8.50000000E-01  8.50000000E-01  8.50000000E-01  8.50000000E-01  8.50000000E-01
  8.50000000E-01  8.50000000E-01  8.50000000E-01  8.50000000E-01  8.50000000E-01
  8.50000000E-01  8.50000000E-01  8.50000000E-01  8.50000000E-01  8.50000000E-01
  8.50000000E-01  8.50000000E-01  8.50000000E-01  8.50000000E-01  8.50000000E-01
  8.50000000E-01  8.50000000E-01  8.50000000E-01  8.50000000E-01  8.50000000E-01
  8.50000000E-01  8.50000000E-01  8.50000000E-01  8.50000000E-01  8.50000000E-01
  8.50000000E-01  8.50000000E-01  8.50000000E-01  8.50000000E-01  8.50000000E-01
  8.50000000E-01  8.50000000E-01  8.50000000E-01  8.50000000E-01  8.50000000E-01
  8.50000000E-01  8.50000000E-01  8.50000000E-01  8.50000000E-01  8.50000000E-01
  8.50000000E-01  8.50000000E-01  8.50000000E-01  8.50000000E-01  8.50000000E-01
  8.50000000E-01  8.50000000E-01  8.50000000E-01  8.50000000E-01  8.50000000E-01
  8.50000000E-01  8.50000000E-01  8.50000000E-01  8.50000000E-01  8.50000000E-01
  8.50000000E-01  8.50000000E-01  8.50000000E-01  8.50000000E-01  8.50000000E-01
  8.50000000E-01  8.50000000E-01  8.50000000E-01  8.50000000E-01  8.50000000E-01
  8.50000000E-01  8.50000000E-01  8.50000000E-01  8.50000000E-01  8.50000000E-01
  8.50000000E-01  8.50000000E-01  8.50000000E-01  8.50000000E-01  8.50000000E-01
  8.50000000E-01  8.50000000E-01  8.50000000E-01  8.50000000E-01  8.50000000E-01
  8.50000000E-01  8.50000000E-01  8.50000000E-01  8.50000000E-01  8.50000000E-01
  8.50000000E-01  8.50000000E-01  8.50000000E-01  8.50000000E-01  8.50000000E-01
  8.50000000E-01  8.50000000E-01  8.50000000E-01  8.50000000E-01  8.50000000E-01
  8.50000000E-01  8.50000000E-01  8.50000000E-01  8.50000000E-01  8.50000000E-01
  8.50000000E-01  8.50000000E-01  8.50000000E-01  8.50000000E-01  8.50000000E-01
  8.50000000E-01  8.50000000E-01  8.50000000E-01  8.50000000E-01  8.50000000E-01
  8.50000000E-01  8.50000000E-01  8.50000000E-01  8.50000000E-01  8.50000000E-01
  8.50000000E-01  8.50000000E-01  8.50000000E-01  8.50000000E-01  8.50000000E-01
  8.50000000E-01  8.50000000E-01  8.50000000E-01  8.50000000E-01  8.50000000E-01
  8.50000000E-01  8.50000000E-01  8.50000000E-01  8.50000000E-01  8.50000000E-01
  8.50000000E-01  8.50000000E-01  8.50000000E-01  8.50000000E-01  8.50000000E-01
  8.50000000E-01  8.50000000E-01  8.50000000E-01  8.50000000E-01  8.50000000E-01
  8.50000000E-01  8.50000000E-01  8.50000000E-01  8.50000000E-01  8.50000000E-01
  8.50000000E-01  8.50000000E-01  8.50000000E-01  8.50000000E-01  8.50000000E-01
  8.50000000E-01  8.50000000E-01  8.50000000E-01  8.50000000E-01  8.50000000E-01
  8.50000000E-01  8.50000000E-01  8.50000000E-01  8.50000000E-01  8.50000000E-01
  8.50000000E-01  8.50000000E-01  8.50000000E-01  8.50000000E-01  8.50000000E-01
  8.50000000E-01  8.50000000E-01  8.50000000E-01  8.50000000E-01  8.50000000E-01
  8.50000000E-01  8.50000000E-01  8.50000000E-01  8.50000000E-01  8.50000000E-01
  8.50000000E-01  8.50000000E-01  8.50000000E-01  8.50000000E-01  8.50000000E-01
  8.50000000E-01  8.50000000E-01  8.50000000E-01  8.50000000E-01  8.50000000E-01
  8.50000000E-01  8.50000000E-01  8.50000000E-01  8.50000000E-01  8.50000000E-01
  8.50000000E-01  8.50000000E-01  8.50000000E-01  8.50000000E-01  8.50000000E-01
  8.50000000E-01  8.50000000E-01  8.50000000E-01  8.50000000E-01  8.50000000E-01
  8.50000000E-01  8.50000000E-01  8.50000000E-01  8.50000000E-01  8.50000000E-01
  8.50000000E-01  8.50000000E-01  8.50000000E-01  8.50000000E-01  8.50000000E-01
  8.50000000E-01  8.50000000E-01  8.50000000E-01  8.50000000E-01  8.50000000E-01
  8.50000000E-01  8.50000000E-01  8.50000000E-01  8.50000000E-01  8.50000000E-01
  8.50000000E-01  8.50000000E-01  8.50000000E-01  8.50000000E-01  8.50000000E-01
  8.50000000E-01  8.50000000E-01  8.50000000E-01  8.50000000E-01  8.50000000E-01
  8.50000000E-01  8.50000000E-01  8.50000000E-01  8.50000000E-01  8.50000000E-01
  8.50000000E-01  8.50000000E-01  8.50000000E-01  8.50000000E-01  8.50000000E-01
  8.50000000E-01  8.50000000E-01  8.50000000E-01  8.50000000E-01  8.50000000E-01
  8.50000000E-01  8.50000000E-01  8.50000000E-01  8.50000000E-01  8.50000000E-01
  8.50000000E-01  8.50000000E-01  8.50000000E-01  8.50000000E-01  8.50000000E-01
  8.50000000E-01  8.50000000E-01  8.50000000E-01  8.50000000E-01  8.50000000E-01
  8.50000000E-01  8.50000000E-01  8.50000000E-01  8.50000000E-01  8.50000000E-01
  8.50000000E-01  8.50000000E-01  8.50000000E-01  8.50000000E-01  8.50000000E-01
  8.50000000E-01  8.50000000E-01  8.50000000E-01  8.50000000E-01  8.50000000E-01
  8.50000000E-01  8.50000000E-01  8.50000000E-01  8.50000000E-01  8.50000000E-01
  8.50000000E-01  8.50000000E-01  8.50000000E-01  8.50000000E-01  8.50000000E-01
  8.50000000E-01  8.50000000E-01  8.50000000E-01  8.50000000E-01  8.50000000E-01
  8.50000000E-01  8.50000000E-01  8.50000000E-01  8.50000000E-01  8.50000000E-01
  8.50000000E-01  8.50000000E-01  8.50000000E-01  8.50000000E-01  8.50000000E-01
  8.50000000E-01  8.50000000E-01  8.50000000E-01  8.50000000E-01  8.50000000E-01
  8.50000000E-01  8.50000000E-01  8.50000000E-01  8.50000000E-01  8.50000000E-01
  8.50000000E-01  8.50000000E-01  8.50000000E-01  8.50000000E-01  8.50000000E-01
  8.50000000E-01  8.50000000E-01  8.50000000E-01  8.50000000E-01  8.50000000E-01
  8.50000000E-01  8.50000000E-01  8.50000000E-01  8.50000000E-01  8.50000000E-01
  8.50000000E-01  8.50000000E-01  8.50000000E-01  8.50000000E-01  8.50000000E-01
  8.50000000E-01  8.50000000E-01  8.50000000E-01  8.50000000E-01  8.50000000E-01
  8.50000000E-01  8.50000000E-01  8.50000000E-01  8.50000000E-01  8.50000000E-01
  8.50000000E-01  8.50000000E-01  8.50000000E-01  8.50000000E-01  8.50000000E-01
  8.50000000E-01  8.50000000E-01  8.50000000E-01  8.50000000E-01  8.50000000E-01
  8.50000000E-01  8.50000000E-01  8.50000000E-01  8.50000000E-01  8.50000000E-01
  8.50000000E-01  8.50000000E-01  8.50000000E-01  8.50000000E-01  8.50000000E-01
  8.50000000E-01  8.50000000E-01  8.50000000E-01  8.50000000E-01  8.50000000E-01
  8.50000000E-01  8.50000000E-01  8.50000000E-01  8.50000000E-01  8.50000000E-01
  8.50000000E-01  8.50000000E-01  8.50000000E-01  8.50000000E-01  8.50000000E-01
  8.50000000E-01  8.50000000E-01  8.50000000E-01  8.50000000E-01  8.50000000E-01
  8.50000000E-01  8.50000000E-01  8.50000000E-01  8.50000000E-01  8.50000000E-01
  8.50000000E-01  8.50000000E-01  8.50000000E-01  8.50000000E-01  8.50000000E-01
  8.50000000E-01  8.50000000E-01  8.50000000E-01  8.50000000E-01  8.50000000E-01
  8.50000000E-01  8.50000000E-01  8.50000000E-01  8.50000000E-01  8.50000000E-01
  8.50000000E-01  8.50000000E-01  8.50000000E-01  8.50000000E-01  8.50000000E-01
  8.50000000E-01  8.50000000E-01  8.50000000E-01  8.50000000E-01  8.50000000E-01
  8.50000000E-01  8.50000000E-01  8.50000000E-01  8.50000000E-01  8.50000000E-01
  8.50000000E-01  8.50000000E-01  8.50000000E-01  8.50000000E-01  8.50000000E-01
  8.50000000E-01  8.50000000E-01  8.50000000E-01  8.50000000E-01  8.50000000E-01
  8.50000000E-01  8.50000000E-01  8.50000000E-01  8.50000000E-01  8.50000000E-01
  8.50000000E-01  8.50000000E-01  8.50000000E-01  8.50000000E-01  8.50000000E-01
  8.50000000E-01  8.50000000E-01  8.50000000E-01  8.50000000E-01  8.50000000E-01
  8.50000000E-01  8.50000000E-01  8.50000000E-01  8.50000000E-01  8.50000000E-01
  8.50000000E-01  8.50000000E-01  8.50000000E-01  8.50000000E-01  8.50000000E-01
  8.50000000E-01  8.50000000E-01  8.50000000E-01  8.50000000E-01  8.50000000E-01
  8.50000000E-01  8.50000000E-01  8.50000000E-01  8.50000000E-01  8.50000000E-01
  8.50000000E-01  8.50000000E-01  8.50000000E-01  8.50000000E-01  8.50000000E-01
  8.50000000E-01  8.50000000E-01  8.50000000E-01  8.50000000E-01  8.50000000E-01
  8.50000000E-01  8.50000000E-01  8.50000000E-01  8.50000000E-01  8.50000000E-01
  8.50000000E-01  8.50000000E-01  8.50000000E-01  8.50000000E-01  8.50000000E-01
  8.50000000E-01  8.50000000E-01  8.50000000E-01  8.50000000E-01  8.50000000E-01
  8.50000000E-01  8.50000000E-01  8.50000000E-01  8.50000000E-01  8.50000000E-01
  8.50000000E-01  8.50000000E-01  8.50000000E-01  8.50000000E-01  8.50000000E-01
  8.50000000E-01  8.50000000E-01  8.50000000E-01  8.50000000E-01  8.50000000E-01
  8.50000000E-01  8.50000000E-01  8.50000000E-01  8.50000000E-01  8.50000000E-01
  8.50000000E-01  8.50000000E-01  8.50000000E-01  8.50000000E-01  8.50000000E-01
  8.50000000E-01  8.50000000E-01  8.50000000E-01  8.50000000E-01  8.50000000E-01
  8.50000000E-01  8.50000000E-01  8.50000000E-01  8.50000000E-01  8.50000000E-01
  8.50000000E-01  8.50000000E-01  8.50000000E-01  8.50000000E-01  8.50000000E-01
  8.50000000E-01  8.50000000E-01  8.50000000E-01  8.50000000E-01  8.50000000E-01
  8.50000000E-01  8.50000000E-01  8.50000000E-01  8.50000000E-01  8.50000000E-01
  8.50000000E-01  8.50000000E-01  8.50000000E-01  8.50000000E-01  8.50000000E-01
  8.50000000E-01  8.50000000E-01  8.50000000E-01  8.50000000E-01  8.50000000E-01
  8.50000000E-01  8.50000000E-01  8.50000000E-01  8.50000000E-01  8.50000000E-01
  8.50000000E-01  8.50000000E-01  8.50000000E-01  8.50000000E-01  8.50000000E-01
  8.50000000E-01  8.50000000E-01  8.50000000E-01  8.50000000E-01  8.50000000E-01
  8.50000000E-01  8.50000000E-01  8.50000000E-01  8.50000000E-01  8.50000000E-01
  8.50000000E-01  8.50000000E-01  8.50000000E-01  8.50000000E-01  8.50000000E-01
  8.50000000E-01  8.50000000E-01  8.50000000E-01  8.50000000E-01  8.50000000E-01
  8.50000000E-01  8.50000000E-01  8.50000000E-01  8.50000000E-01  8.50000000E-01
  8.50000000E-01  8.50000000E-01  8.50000000E-01  8.50000000E-01  8.50000000E-01
  8.50000000E-01  8.50000000E-01  8.50000000E-01  8.50000000E-01  8.50000000E-01
  8.50000000E-01  8.50000000E-01  8.50000000E-01  8.50000000E-01  8.50000000E-01
  8.50000000E-01  8.50000000E-01  8.50000000E-01  8.50000000E-01  8.50000000E-01
  8.50000000E-01  8.50000000E-01  8.50000000E-01  8.50000000E-01  8.50000000E-01
  8.50000000E-01  8.50000000E-01  8.50000000E-01  8.50000000E-01  8.50000000E-01
  8.50000000E-01  8.50000000E-01  8.50000000E-01  8.50000000E-01  8.50000000E-01
  8.50000000E-01  8.50000000E-01  8.50000000E-01  8.50000000E-01  8.50000000E-01
  8.50000000E-01  8.50000000E-01  8.50000000E-01  8.50000000E-01  8.50000000E-01
  8.50000000E-01  8.50000000E-01  8.50000000E-01  8.50000000E-01  8.50000000E-01
  8.50000000E-01  8.50000000E-01  8.50000000E-01  8.50000000E-01  8.50000000E-01
  8.50000000E-01  8.50000000E-01  8.50000000E-01  8.50000000E-01  8.50000000E-01
  8.50000000E-01  8.50000000E-01  8.50000000E-01  8.50000000E-01  8.50000000E-01
  8.50000000E-01  8.50000000E-01  8.50000000E-01  8.50000000E-01  8.50000000E-01
  8.50000000E-01  8.50000000E-01  8.50000000E-01  8.50000000E-01  8.50000000E-01
  8.50000000E-01  8.50000000E-01  8.50000000E-01  8.50000000E-01  8.50000000E-01
  8.50000000E-01  8.50000000E-01  8.50000000E-01  8.50000000E-01  8.50000000E-01
  8.50000000E-01  8.50000000E-01  8.50000000E-01  8.50000000E-01  8.50000000E-01
  8.50000000E-01  8.50000000E-01  8.50000000E-01  8.50000000E-01  8.50000000E-01
  8.50000000E-01  8.50000000E-01  8.50000000E-01  8.50000000E-01  8.50000000E-01
  8.50000000E-01  8.50000000E-01  8.50000000E-01  8.50000000E-01  8.50000000E-01
  8.50000000E-01  8.50000000E-01  8.50000000E-01  8.50000000E-01  8.50000000E-01
  8.50000000E-01  8.50000000E-01  8.50000000E-01  8.50000000E-01  8.50000000E-01
  8.50000000E-01  8.50000000E-01  8.50000000E-01  8.50000000E-01  8.50000000E-01
  8.50000000E-01  8.50000000E-01  8.50000000E-01  8.50000000E-01  8.50000000E-01
  8.50000000E-01  8.50000000E-01  8.50000000E-01  8.50000000E-01  8.50000000E-01
  8.50000000E-01  8.50000000E-01  8.50000000E-01  8.50000000E-01  8.50000000E-01
  8.50000000E-01  8.50000000E-01  8.50000000E-01  8.50000000E-01  8.50000000E-01
  8.50000000E-01  8.50000000E-01  8.50000000E-01  8.50000000E-01  8.50000000E-01
  8.50000000E-01  8.50000000E-01  8.50000000E-01  8.50000000E-01  8.50000000E-01
  8.50000000E-01  8.50000000E-01  8.50000000E-01  8.50000000E-01  8.50000000E-01
  8.50000000E-01  8.50000000E-01  8.50000000E-01  8.50000000E-01  8.50000000E-01
  8.50000000E-01  8.50000000E-01  8.50000000E-01  8.50000000E-01  8.50000000E-01
  8.50000000E-01  8.50000000E-01  8.50000000E-01  8.50000000E-01  8.50000000E-01
  8.50000000E-01  8.50000000E-01  8.50000000E-01  8.50000000E-01  8.50000000E-01
  8.50000000E-01  8.50000000E-01  8.50000000E-01  8.50000000E-01  8.50000000E-01
  8.50000000E-01  8.50000000E-01  8.50000000E-01  8.50000000E-01  8.50000000E-01
  8.50000000E-01  8.50000000E-01  8.50000000E-01  8.50000000E-01  8.50000000E-01
  8.50000000E-01  8.50000000E-01  8.50000000E-01  8.50000000E-01  8.50000000E-01
  8.50000000E-01  8.50000000E-01  8.50000000E-01  8.50000000E-01  8.50000000E-01
  8.50000000E-01  8.50000000E-01  8.50000000E-01  8.50000000E-01  8.50000000E-01
  8.50000000E-01  8.50000000E-01  8.50000000E-01  8.50000000E-01  8.50000000E-01
  8.50000000E-01  8.50000000E-01  8.50000000E-01  8.50000000E-01  8.50000000E-01
  8.50000000E-01  8.50000000E-01  8.50000000E-01  8.50000000E-01  8.50000000E-01
  8.50000000E-01  8.50000000E-01  8.50000000E-01  8.50000000E-01  8.50000000E-01
  8.50000000E-01  8.50000000E-01  8.50000000E-01  8.50000000E-01  8.50000000E-01
  8.50000000E-01  8.50000000E-01  8.50000000E-01  8.50000000E-01  8.50000000E-01
  8.50000000E-01  8.50000000E-01  8.50000000E-01  8.50000000E-01  8.50000000E-01
  8.50000000E-01  8.50000000E-01  8.50000000E-01  8.50000000E-01  8.50000000E-01
  8.50000000E-01  8.50000000E-01  8.50000000E-01  8.50000000E-01  8.50000000E-01
  8.50000000E-01  8.50000000E-01  8.50000000E-01  8.50000000E-01  8.50000000E-01
  8.50000000E-01  8.50000000E-01  8.50000000E-01  8.50000000E-01  8.50000000E-01
  8.50000000E-01  8.50000000E-01  8.50000000E-01  8.50000000E-01  8.50000000E-01
  8.50000000E-01  8.50000000E-01  8.50000000E-01  8.50000000E-01  8.50000000E-01
  8.50000000E-01  8.50000000E-01  8.50000000E-01  8.50000000E-01  8.50000000E-01
  8.50000000E-01  8.50000000E-01  8.50000000E-01  8.50000000E-01  8.50000000E-01
  8.50000000E-01  8.50000000E-01  8.50000000E-01  8.50000000E-01  8.50000000E-01
  8.50000000E-01  8.50000000E-01  8.50000000E-01  8.50000000E-01  8.50000000E-01
  8.50000000E-01  8.50000000E-01  8.50000000E-01  8.50000000E-01  8.50000000E-01
  8.50000000E-01  8.50000000E-01  8.50000000E-01  8.50000000E-01  8.50000000E-01
  8.50000000E-01  8.50000000E-01  8.50000000E-01  8.50000000E-01  8.50000000E-01
  8.50000000E-01  8.50000000E-01  8.50000000E-01  8.50000000E-01  8.50000000E-01
  8.50000000E-01  8.50000000E-01  8.50000000E-01  8.50000000E-01  8.50000000E-01
  8.50000000E-01  8.50000000E-01  8.50000000E-01  8.50000000E-01  8.50000000E-01
  8.50000000E-01  8.50000000E-01  8.50000000E-01  8.50000000E-01  8.50000000E-01
  8.50000000E-01  8.50000000E-01  8.50000000E-01  8.50000000E-01  8.50000000E-01
  8.50000000E-01  8.50000000E-01  8.50000000E-01  8.50000000E-01  8.50000000E-01
  8.50000000E-01  8.50000000E-01  8.50000000E-01  8.50000000E-01  8.50000000E-01
  8.50000000E-01  8.50000000E-01  8.50000000E-01  8.50000000E-01  8.50000000E-01
  8.50000000E-01  8.50000000E-01  8.50000000E-01  8.50000000E-01  8.50000000E-01
  8.50000000E-01  8.50000000E-01  8.50000000E-01  8.50000000E-01  8.50000000E-01
  8.50000000E-01  8.50000000E-01  8.50000000E-01  8.50000000E-01  8.50000000E-01
  8.50000000E-01  8.50000000E-01  8.50000000E-01  8.50000000E-01  8.50000000E-01
  8.50000000E-01  8.50000000E-01  8.50000000E-01  8.50000000E-01  8.50000000E-01
  8.50000000E-01  8.50000000E-01  8.50000000E-01  8.50000000E-01  8.50000000E-01
  8.50000000E-01  8.50000000E-01  8.50000000E-01  8.50000000E-01  8.50000000E-01
  8.50000000E-01  8.50000000E-01  8.50000000E-01  8.50000000E-01  8.50000000E-01
  8.50000000E-01  8.50000000E-01  8.50000000E-01  8.50000000E-01  8.50000000E-01
  8.50000000E-01  8.50000000E-01  8.50000000E-01  8.50000000E-01  8.50000000E-01
  8.50000000E-01  8.50000000E-01  8.50000000E-01  8.50000000E-01  8.50000000E-01
  8.50000000E-01  8.50000000E-01  8.50000000E-01  8.50000000E-01  8.50000000E-01
  8.50000000E-01  8.50000000E-01  8.50000000E-01  8.50000000E-01  8.50000000E-01
  8.50000000E-01  8.50000000E-01  8.50000000E-01  8.50000000E-01  8.50000000E-01
  8.50000000E-01  8.50000000E-01  8.50000000E-01  8.50000000E-01  8.50000000E-01
  8.50000000E-01  8.50000000E-01  8.50000000E-01  8.50000000E-01  8.50000000E-01
  8.50000000E-01  8.50000000E-01  8.50000000E-01  8.50000000E-01  8.50000000E-01
  8.50000000E-01  8.50000000E-01  8.50000000E-01  8.50000000E-01  8.50000000E-01
  8.50000000E-01  8.50000000E-01  8.50000000E-01  8.50000000E-01  8.50000000E-01
  8.50000000E-01  8.50000000E-01  8.50000000E-01  8.50000000E-01  8.50000000E-01
  8.50000000E-01  8.50000000E-01  8.50000000E-01  8.50000000E-01  8.50000000E-01
  8.50000000E-01  8.50000000E-01  8.50000000E-01  8.50000000E-01  8.50000000E-01
  8.50000000E-01  8.50000000E-01  8.50000000E-01  8.50000000E-01  8.50000000E-01
  8.50000000E-01  8.50000000E-01  8.50000000E-01  8.50000000E-01  8.50000000E-01
  8.50000000E-01  8.50000000E-01  8.50000000E-01  8.50000000E-01  8.50000000E-01
  8.50000000E-01  8.50000000E-01  8.50000000E-01  8.50000000E-01  8.50000000E-01
  8.50000000E-01  8.50000000E-01  8.50000000E-01  8.50000000E-01  8.50000000E-01
  8.50000000E-01  8.50000000E-01  8.50000000E-01  8.50000000E-01  8.50000000E-01
  8.50000000E-01  8.50000000E-01  8.50000000E-01  8.50000000E-01  8.50000000E-01
  8.50000000E-01  8.50000000E-01  8.50000000E-01  8.50000000E-01  8.50000000E-01
  8.50000000E-01  8.50000000E-01  8.50000000E-01  8.50000000E-01  8.50000000E-01
  8.50000000E-01  8.50000000E-01  8.50000000E-01  8.50000000E-01  8.50000000E-01
  8.50000000E-01  8.50000000E-01  8.50000000E-01  8.50000000E-01  8.50000000E-01
  8.50000000E-01  8.50000000E-01  8.50000000E-01  8.50000000E-01  8.50000000E-01
  8.50000000E-01  8.50000000E-01  8.50000000E-01  8.50000000E-01  8.50000000E-01
  8.50000000E-01  8.50000000E-01  8.50000000E-01  8.50000000E-01  8.50000000E-01
  8.50000000E-01  8.50000000E-01  8.50000000E-01  8.50000000E-01  8.50000000E-01
  8.50000000E-01  8.50000000E-01  8.50000000E-01  8.50000000E-01  8.50000000E-01
  8.50000000E-01  8.50000000E-01  8.50000000E-01  8.50000000E-01  8.50000000E-01
  8.50000000E-01  8.50000000E-01  8.50000000E-01  8.50000000E-01  8.50000000E-01
  8.50000000E-01  8.50000000E-01  8.50000000E-01  8.50000000E-01  8.50000000E-01
  8.50000000E-01  8.50000000E-01  8.50000000E-01  8.50000000E-01  8.50000000E-01
  8.50000000E-01  8.50000000E-01  8.50000000E-01  8.50000000E-01  8.50000000E-01
  8.50000000E-01  8.50000000E-01  8.50000000E-01  8.50000000E-01  8.50000000E-01
  8.50000000E-01  8.50000000E-01  8.50000000E-01  8.50000000E-01  8.50000000E-01
  8.50000000E-01  8.50000000E-01  8.50000000E-01  8.50000000E-01  8.50000000E-01
  8.50000000E-01  8.50000000E-01  8.50000000E-01  8.50000000E-01  8.50000000E-01
  8.50000000E-01  8.50000000E-01  8.50000000E-01  8.50000000E-01  8.50000000E-01
  8.50000000E-01  8.50000000E-01  8.50000000E-01  8.50000000E-01  8.50000000E-01
  8.50000000E-01  8.50000000E-01  8.50000000E-01  8.50000000E-01  8.50000000E-01
  8.50000000E-01  8.50000000E-01  8.50000000E-01  8.50000000E-01  8.50000000E-01
  8.50000000E-01  8.50000000E-01  8.50000000E-01  8.50000000E-01  8.50000000E-01
  8.50000000E-01  8.50000000E-01  8.50000000E-01  8.50000000E-01  8.50000000E-01
  8.50000000E-01  8.50000000E-01  8.50000000E-01  8.50000000E-01  8.50000000E-01
  8.50000000E-01  8.50000000E-01  8.50000000E-01  8.50000000E-01  8.50000000E-01
  8.50000000E-01  8.50000000E-01  8.50000000E-01  8.50000000E-01  8.50000000E-01
  8.50000000E-01  8.50000000E-01  8.50000000E-01  8.50000000E-01  8.50000000E-01
  8.50000000E-01  8.50000000E-01  8.50000000E-01  8.50000000E-01  8.50000000E-01
  8.50000000E-01  8.50000000E-01  8.50000000E-01  8.50000000E-01  8.50000000E-01
  8.50000000E-01  8.50000000E-01  8.50000000E-01  8.50000000E-01  8.50000000E-01
  8.50000000E-01  8.50000000E-01  8.50000000E-01  8.50000000E-01  8.50000000E-01
  8.50000000E-01  8.50000000E-01  8.50000000E-01  8.50000000E-01  8.50000000E-01
  8.50000000E-01  8.50000000E-01  8.50000000E-01  8.50000000E-01  8.50000000E-01
  8.50000000E-01  8.50000000E-01  8.50000000E-01  8.50000000E-01  8.50000000E-01
  8.50000000E-01  8.50000000E-01  8.50000000E-01  8.50000000E-01  8.50000000E-01
  8.50000000E-01  8.50000000E-01  8.50000000E-01  8.50000000E-01  8.50000000E-01
  8.50000000E-01  8.50000000E-01  8.50000000E-01  8.50000000E-01  8.50000000E-01
  8.50000000E-01  8.50000000E-01  8.50000000E-01  8.50000000E-01  8.50000000E-01
  8.50000000E-01  8.50000000E-01  8.50000000E-01  8.50000000E-01  8.50000000E-01
  8.50000000E-01  8.50000000E-01  8.50000000E-01  8.50000000E-01  8.50000000E-01
  8.50000000E-01  8.50000000E-01  8.50000000E-01  8.50000000E-01  8.50000000E-01
  8.50000000E-01  8.50000000E-01  8.50000000E-01  8.50000000E-01  8.50000000E-01
  8.50000000E-01  8.50000000E-01  8.50000000E-01  8.50000000E-01  8.50000000E-01
  8.50000000E-01  8.50000000E-01  8.50000000E-01  8.50000000E-01  8.50000000E-01
  8.50000000E-01  8.50000000E-01  8.50000000E-01  8.50000000E-01  8.50000000E-01
  8.50000000E-01  8.50000000E-01  8.50000000E-01  8.50000000E-01  8.50000000E-01
  8.50000000E-01  8.50000000E-01  8.50000000E-01  8.50000000E-01  8.50000000E-01
  8.50000000E-01  8.50000000E-01  8.50000000E-01  8.50000000E-01  8.50000000E-01
  8.50000000E-01  8.50000000E-01  8.50000000E-01  8.50000000E-01  8.50000000E-01
  8.50000000E-01  8.50000000E-01  8.50000000E-01  8.50000000E-01  8.50000000E-01
  8.50000000E-01  8.50000000E-01  8.50000000E-01  8.50000000E-01  8.50000000E-01
  8.50000000E-01  8.50000000E-01  8.50000000E-01  8.50000000E-01  8.50000000E-01
  8.50000000E-01  8.50000000E-01  8.50000000E-01  8.50000000E-01  8.50000000E-01
  8.50000000E-01  8.50000000E-01  8.50000000E-01  8.50000000E-01  8.50000000E-01
  8.50000000E-01  8.50000000E-01  8.50000000E-01  8.50000000E-01  8.50000000E-01
  8.50000000E-01  8.50000000E-01  8.50000000E-01  8.50000000E-01  8.50000000E-01
  8.50000000E-01  8.50000000E-01  8.50000000E-01  8.50000000E-01  8.50000000E-01
  8.50000000E-01  8.50000000E-01  8.50000000E-01  8.50000000E-01  8.50000000E-01
  8.50000000E-01  8.50000000E-01  8.50000000E-01  8.50000000E-01  8.50000000E-01
  8.50000000E-01  8.50000000E-01  8.50000000E-01  8.50000000E-01  8.50000000E-01
  8.50000000E-01  8.50000000E-01  8.50000000E-01  8.50000000E-01  8.50000000E-01
  8.50000000E-01  8.50000000E-01  8.50000000E-01  8.50000000E-01  8.50000000E-01
  8.50000000E-01  8.50000000E-01  8.50000000E-01  8.50000000E-01  8.50000000E-01
  8.50000000E-01  8.50000000E-01  8.50000000E-01  8.50000000E-01  8.50000000E-01
  8.50000000E-01  8.50000000E-01  8.50000000E-01  8.50000000E-01  8.50000000E-01
  8.50000000E-01  8.50000000E-01  8.50000000E-01  8.50000000E-01  8.50000000E-01
  8.50000000E-01  8.50000000E-01  8.50000000E-01  8.50000000E-01  8.50000000E-01
  8.50000000E-01  8.50000000E-01  8.50000000E-01  8.50000000E-01  8.50000000E-01
  8.50000000E-01  8.50000000E-01  8.50000000E-01  8.50000000E-01  8.50000000E-01
  8.50000000E-01  8.50000000E-01  8.50000000E-01  8.50000000E-01  8.50000000E-01
  8.50000000E-01  8.50000000E-01  8.50000000E-01  8.50000000E-01  8.50000000E-01
  8.50000000E-01  8.50000000E-01  8.50000000E-01  8.50000000E-01  8.50000000E-01
  8.50000000E-01  8.50000000E-01  8.50000000E-01  8.50000000E-01  8.50000000E-01
  8.50000000E-01  8.50000000E-01  8.50000000E-01  8.50000000E-01  8.50000000E-01
  8.50000000E-01  8.50000000E-01  8.50000000E-01  8.50000000E-01  8.50000000E-01
  8.50000000E-01  8.50000000E-01  8.50000000E-01  8.50000000E-01  8.50000000E-01
  8.50000000E-01  8.50000000E-01  8.50000000E-01  8.50000000E-01  8.50000000E-01
  8.50000000E-01  8.50000000E-01  8.50000000E-01  8.50000000E-01  8.50000000E-01
  8.50000000E-01  8.50000000E-01  8.50000000E-01  8.50000000E-01  8.50000000E-01
  8.50000000E-01  8.50000000E-01  8.50000000E-01  8.50000000E-01  8.50000000E-01
  8.50000000E-01  8.50000000E-01  8.50000000E-01  8.50000000E-01  8.50000000E-01
  8.50000000E-01  8.50000000E-01  8.50000000E-01  8.50000000E-01  8.50000000E-01
  8.50000000E-01  8.50000000E-01  8.50000000E-01  8.50000000E-01  8.50000000E-01
  8.50000000E-01  8.50000000E-01  8.50000000E-01  8.50000000E-01  8.50000000E-01
  8.50000000E-01  8.50000000E-01  8.50000000E-01  8.50000000E-01  8.50000000E-01
  8.50000000E-01  8.50000000E-01  8.50000000E-01  8.50000000E-01  8.50000000E-01
  8.50000000E-01  8.50000000E-01  8.50000000E-01  8.50000000E-01  8.50000000E-01
  8.50000000E-01  8.50000000E-01  8.50000000E-01  8.50000000E-01  8.50000000E-01
  8.50000000E-01  8.50000000E-01  8.50000000E-01  8.50000000E-01  8.50000000E-01
  8.50000000E-01  8.50000000E-01  8.50000000E-01  8.50000000E-01  8.50000000E-01
  8.50000000E-01  8.50000000E-01  8.50000000E-01  8.50000000E-01  8.50000000E-01
  8.50000000E-01  8.50000000E-01  8.50000000E-01  8.50000000E-01  8.50000000E-01
  8.50000000E-01  8.50000000E-01  8.50000000E-01  8.50000000E-01  8.50000000E-01
  8.50000000E-01  8.50000000E-01  8.50000000E-01  8.50000000E-01  8.50000000E-01
  8.50000000E-01  8.50000000E-01  8.50000000E-01  8.50000000E-01  8.50000000E-01
  8.50000000E-01  8.50000000E-01  8.50000000E-01  8.50000000E-01  8.50000000E-01
  8.50000000E-01  8.50000000E-01  8.50000000E-01  8.50000000E-01  8.50000000E-01
  8.50000000E-01  8.50000000E-01  8.50000000E-01  8.50000000E-01  8.50000000E-01
  8.50000000E-01  8.50000000E-01  8.50000000E-01  8.50000000E-01  8.50000000E-01
  8.50000000E-01  8.50000000E-01  8.50000000E-01  8.50000000E-01  8.50000000E-01
  8.50000000E-01  8.50000000E-01  8.50000000E-01  8.50000000E-01  8.50000000E-01
  8.50000000E-01  8.50000000E-01  8.50000000E-01  8.50000000E-01  8.50000000E-01
  8.50000000E-01  8.50000000E-01  8.50000000E-01  8.50000000E-01  8.50000000E-01
  8.50000000E-01  8.50000000E-01  8.50000000E-01  8.50000000E-01  8.50000000E-01
  8.50000000E-01  8.50000000E-01  8.50000000E-01  8.50000000E-01  8.50000000E-01
  8.50000000E-01  8.50000000E-01  8.50000000E-01  8.50000000E-01  8.50000000E-01
  8.50000000E-01  8.50000000E-01  8.50000000E-01  8.50000000E-01  8.50000000E-01
  8.50000000E-01  8.50000000E-01  8.50000000E-01  8.50000000E-01  8.50000000E-01
  8.50000000E-01  8.50000000E-01  8.50000000E-01  8.50000000E-01  8.50000000E-01
  8.50000000E-01  8.50000000E-01  8.50000000E-01  8.50000000E-01  8.50000000E-01
  8.50000000E-01  8.50000000E-01  8.50000000E-01  8.50000000E-01  8.50000000E-01
  8.50000000E-01  8.50000000E-01  8.50000000E-01  8.50000000E-01  8.50000000E-01
  8.50000000E-01  8.50000000E-01  8.50000000E-01  8.50000000E-01  8.50000000E-01
  8.50000000E-01  8.50000000E-01  8.50000000E-01  8.50000000E-01  8.50000000E-01
  8.50000000E-01  8.50000000E-01  8.50000000E-01  8.50000000E-01  8.50000000E-01
  8.50000000E-01  8.50000000E-01  8.50000000E-01  8.50000000E-01  8.50000000E-01
  8.50000000E-01  8.50000000E-01  8.50000000E-01  8.50000000E-01  8.50000000E-01
  8.50000000E-01  8.50000000E-01  8.50000000E-01  8.50000000E-01  8.50000000E-01
  8.50000000E-01  8.50000000E-01  8.50000000E-01  8.50000000E-01  8.50000000E-01
  8.50000000E-01  8.50000000E-01  8.50000000E-01  8.50000000E-01  8.50000000E-01
  8.50000000E-01  8.50000000E-01  8.50000000E-01  8.50000000E-01  8.50000000E-01
  8.50000000E-01  8.50000000E-01  8.50000000E-01  8.50000000E-01  8.50000000E-01
  8.50000000E-01  8.50000000E-01  8.50000000E-01  8.50000000E-01  8.50000000E-01
  8.50000000E-01  8.50000000E-01  8.50000000E-01  8.50000000E-01  8.50000000E-01
  8.50000000E-01  8.50000000E-01  8.50000000E-01  8.50000000E-01  8.50000000E-01
  8.50000000E-01  8.50000000E-01  8.50000000E-01  8.50000000E-01  8.50000000E-01
  8.50000000E-01  8.50000000E-01  8.50000000E-01  8.50000000E-01  8.50000000E-01
  8.50000000E-01  8.50000000E-01  8.50000000E-01  8.50000000E-01  8.50000000E-01
  8.50000000E-01  8.50000000E-01  8.50000000E-01  8.50000000E-01  8.50000000E-01
  8.50000000E-01  8.50000000E-01  8.50000000E-01  8.50000000E-01  8.50000000E-01
  8.50000000E-01  8.50000000E-01  8.50000000E-01  8.50000000E-01  8.50000000E-01
  8.50000000E-01  8.50000000E-01  8.50000000E-01  8.50000000E-01  8.50000000E-01
  8.50000000E-01  8.50000000E-01  8.50000000E-01  8.50000000E-01  8.50000000E-01
  8.50000000E-01  8.50000000E-01  8.50000000E-01  8.50000000E-01  8.50000000E-01
  8.50000000E-01  8.50000000E-01  8.50000000E-01  8.50000000E-01  8.50000000E-01
  8.50000000E-01  8.50000000E-01  8.50000000E-01  8.50000000E-01  8.50000000E-01
  8.50000000E-01  8.50000000E-01  8.50000000E-01  8.50000000E-01  8.50000000E-01
  8.50000000E-01  8.50000000E-01  8.50000000E-01  8.50000000E-01  8.50000000E-01
  8.50000000E-01  8.50000000E-01  8.50000000E-01  8.50000000E-01  8.50000000E-01
  8.50000000E-01  8.50000000E-01  8.50000000E-01  8.50000000E-01  8.50000000E-01
  8.50000000E-01  8.50000000E-01  8.50000000E-01  8.50000000E-01  8.50000000E-01
  8.50000000E-01  8.50000000E-01  8.50000000E-01  8.50000000E-01  8.50000000E-01
  8.50000000E-01  8.50000000E-01  8.50000000E-01  8.50000000E-01  8.50000000E-01
  8.50000000E-01  8.50000000E-01  8.50000000E-01  8.50000000E-01  8.50000000E-01
  8.50000000E-01  8.50000000E-01  8.50000000E-01  8.50000000E-01  8.50000000E-01
  8.50000000E-01  8.50000000E-01  8.50000000E-01  8.50000000E-01  8.50000000E-01
  8.50000000E-01  8.50000000E-01  8.50000000E-01  8.50000000E-01  8.50000000E-01
  8.50000000E-01  8.50000000E-01  8.50000000E-01  8.50000000E-01  8.50000000E-01
  8.50000000E-01  8.50000000E-01  8.50000000E-01  8.50000000E-01  8.50000000E-01
  8.50000000E-01  8.50000000E-01  8.50000000E-01  8.50000000E-01  8.50000000E-01
  8.50000000E-01  8.50000000E-01  8.50000000E-01  8.50000000E-01  8.50000000E-01
  8.50000000E-01  8.50000000E-01  8.50000000E-01  8.50000000E-01  8.50000000E-01
  8.50000000E-01  8.50000000E-01  8.50000000E-01  8.50000000E-01  8.50000000E-01
  8.50000000E-01  8.50000000E-01  8.50000000E-01  8.50000000E-01  8.50000000E-01
  8.50000000E-01  8.50000000E-01  8.50000000E-01  8.50000000E-01  8.50000000E-01
  8.50000000E-01  8.50000000E-01  8.50000000E-01  8.50000000E-01  8.50000000E-01
  8.50000000E-01  8.50000000E-01  8.50000000E-01  8.50000000E-01  8.50000000E-01
  8.50000000E-01  8.50000000E-01  8.50000000E-01  8.50000000E-01  8.50000000E-01
  8.50000000E-01  8.50000000E-01  8.50000000E-01  8.50000000E-01  8.50000000E-01
  8.50000000E-01  8.50000000E-01  8.50000000E-01  8.50000000E-01  8.50000000E-01
  8.50000000E-01  8.50000000E-01  8.50000000E-01  8.50000000E-01  8.50000000E-01
  8.50000000E-01  8.50000000E-01  8.50000000E-01  8.50000000E-01  8.50000000E-01
  8.50000000E-01  8.50000000E-01  8.50000000E-01  8.50000000E-01  8.50000000E-01
  8.50000000E-01  8.50000000E-01  8.50000000E-01  8.50000000E-01  8.50000000E-01
  8.50000000E-01  8.50000000E-01  8.50000000E-01  8.50000000E-01  8.50000000E-01
  8.50000000E-01  8.50000000E-01  8.50000000E-01  8.50000000E-01  8.50000000E-01
  8.50000000E-01  8.50000000E-01  8.50000000E-01  8.50000000E-01  8.50000000E-01
  8.50000000E-01  8.50000000E-01  8.50000000E-01  8.50000000E-01  8.50000000E-01
  8.50000000E-01  8.50000000E-01  8.50000000E-01  8.50000000E-01  8.50000000E-01
  8.50000000E-01  8.50000000E-01  8.50000000E-01  8.50000000E-01  8.50000000E-01
  8.50000000E-01  8.50000000E-01  8.50000000E-01  8.50000000E-01  8.50000000E-01
  8.50000000E-01  8.50000000E-01  8.50000000E-01  8.50000000E-01  8.50000000E-01
  8.50000000E-01  8.50000000E-01  8.50000000E-01  8.50000000E-01  8.50000000E-01
  8.50000000E-01  8.50000000E-01  8.50000000E-01  8.50000000E-01  8.50000000E-01
  8.50000000E-01  8.50000000E-01  8.50000000E-01  8.50000000E-01  8.50000000E-01
  8.50000000E-01  8.50000000E-01  8.50000000E-01  8.50000000E-01  8.50000000E-01
  8.50000000E-01  8.50000000E-01  8.50000000E-01  8.50000000E-01  8.50000000E-01
  8.50000000E-01  8.50000000E-01  8.50000000E-01  8.50000000E-01  8.50000000E-01
  8.50000000E-01  8.50000000E-01  8.50000000E-01  8.50000000E-01  8.50000000E-01
  8.50000000E-01  8.50000000E-01  8.50000000E-01  8.50000000E-01  8.50000000E-01
  8.50000000E-01  8.50000000E-01  8.50000000E-01  8.50000000E-01  8.50000000E-01
  8.50000000E-01  8.50000000E-01  8.50000000E-01  8.50000000E-01  8.50000000E-01
  8.50000000E-01  8.50000000E-01  8.50000000E-01  8.50000000E-01  8.50000000E-01
  8.50000000E-01  8.50000000E-01  8.50000000E-01  8.50000000E-01  8.50000000E-01
  8.50000000E-01  8.50000000E-01  8.50000000E-01  8.50000000E-01  8.50000000E-01
  8.50000000E-01  8.50000000E-01  8.50000000E-01  8.50000000E-01  8.50000000E-01
  8.50000000E-01  8.50000000E-01  8.50000000E-01  8.50000000E-01  8.50000000E-01
  8.50000000E-01  8.50000000E-01  8.50000000E-01  8.50000000E-01  8.50000000E-01
  8.50000000E-01  8.50000000E-01  8.50000000E-01  8.50000000E-01  8.50000000E-01
  8.50000000E-01  8.50000000E-01  8.50000000E-01  8.50000000E-01  8.50000000E-01
  8.50000000E-01  8.50000000E-01  8.50000000E-01  8.50000000E-01  8.50000000E-01
  8.50000000E-01  8.50000000E-01  8.50000000E-01  8.50000000E-01  8.50000000E-01
  8.50000000E-01  8.50000000E-01  8.50000000E-01  8.50000000E-01  8.50000000E-01
  8.50000000E-01  8.50000000E-01  8.50000000E-01  8.50000000E-01  8.50000000E-01
  8.50000000E-01  8.50000000E-01  8.50000000E-01  8.50000000E-01  8.50000000E-01
  8.50000000E-01  8.50000000E-01  8.50000000E-01  8.50000000E-01  8.50000000E-01
  8.50000000E-01  8.50000000E-01  8.50000000E-01  8.50000000E-01  8.50000000E-01
  8.50000000E-01  8.50000000E-01  8.50000000E-01  8.50000000E-01  8.50000000E-01
  8.50000000E-01  8.50000000E-01  8.50000000E-01  8.50000000E-01  8.50000000E-01
  8.50000000E-01  8.50000000E-01  8.50000000E-01  8.50000000E-01  8.50000000E-01
  8.50000000E-01  8.50000000E-01  8.50000000E-01  8.50000000E-01  8.50000000E-01
  8.50000000E-01  8.50000000E-01  8.50000000E-01  8.50000000E-01  8.50000000E-01
  8.50000000E-01  8.50000000E-01  8.50000000E-01  8.50000000E-01  8.50000000E-01
  8.50000000E-01  8.50000000E-01  8.50000000E-01  8.50000000E-01  8.50000000E-01
  8.50000000E-01  8.50000000E-01  8.50000000E-01  8.50000000E-01  8.50000000E-01
  8.50000000E-01  8.50000000E-01  8.50000000E-01  8.50000000E-01  8.50000000E-01
  8.50000000E-01  8.50000000E-01  8.50000000E-01  8.50000000E-01  8.50000000E-01
  8.50000000E-01  8.50000000E-01  8.50000000E-01  8.50000000E-01  8.50000000E-01
  8.50000000E-01  8.50000000E-01  8.50000000E-01  8.50000000E-01  8.50000000E-01
  8.50000000E-01  8.50000000E-01  8.50000000E-01  8.50000000E-01  8.50000000E-01
  8.50000000E-01  8.50000000E-01  8.50000000E-01  8.50000000E-01  8.50000000E-01
  8.50000000E-01  8.50000000E-01  8.50000000E-01  8.50000000E-01  8.50000000E-01
  8.50000000E-01  8.50000000E-01  8.50000000E-01  8.50000000E-01  8.50000000E-01
  8.50000000E-01  8.50000000E-01  8.50000000E-01  8.50000000E-01  8.50000000E-01
  8.50000000E-01  8.50000000E-01  8.50000000E-01  8.50000000E-01  8.50000000E-01
  8.50000000E-01  8.50000000E-01  8.50000000E-01  8.50000000E-01  8.50000000E-01
  8.50000000E-01  8.50000000E-01  8.50000000E-01  8.50000000E-01  8.50000000E-01
  8.50000000E-01  8.50000000E-01  8.50000000E-01  8.50000000E-01  8.50000000E-01
  8.50000000E-01  8.50000000E-01  8.50000000E-01  8.50000000E-01  8.50000000E-01
  8.50000000E-01  8.50000000E-01  8.50000000E-01  8.50000000E-01  8.50000000E-01
  8.50000000E-01  8.50000000E-01  8.50000000E-01  8.50000000E-01  8.50000000E-01
  8.50000000E-01  8.50000000E-01  8.50000000E-01  8.50000000E-01  8.50000000E-01
  8.50000000E-01  8.50000000E-01  8.50000000E-01  8.50000000E-01  8.50000000E-01
  8.50000000E-01  8.50000000E-01  8.50000000E-01  8.50000000E-01  8.50000000E-01
  8.50000000E-01  8.50000000E-01  8.50000000E-01  8.50000000E-01  8.50000000E-01
  8.50000000E-01  8.50000000E-01  8.50000000E-01  8.50000000E-01  8.50000000E-01
  8.50000000E-01  8.50000000E-01  8.50000000E-01  8.50000000E-01  8.50000000E-01
  8.50000000E-01  8.50000000E-01  8.50000000E-01  8.50000000E-01  8.50000000E-01
  8.50000000E-01  8.50000000E-01  8.50000000E-01  8.50000000E-01  8.50000000E-01
  8.50000000E-01  8.50000000E-01  8.50000000E-01  8.50000000E-01  8.50000000E-01
  8.50000000E-01  8.50000000E-01  8.50000000E-01  8.50000000E-01  8.50000000E-01
  8.50000000E-01  8.50000000E-01  8.50000000E-01  8.50000000E-01  8.50000000E-01
  8.50000000E-01  8.50000000E-01  8.50000000E-01  8.50000000E-01  8.50000000E-01
  8.50000000E-01  8.50000000E-01  8.50000000E-01  8.50000000E-01  8.50000000E-01
  8.50000000E-01  8.50000000E-01  8.50000000E-01  8.50000000E-01  8.50000000E-01
  8.50000000E-01  8.50000000E-01  8.50000000E-01  8.50000000E-01  8.50000000E-01
  8.50000000E-01  8.50000000E-01  8.50000000E-01  8.50000000E-01  8.50000000E-01
  8.50000000E-01  8.50000000E-01  8.50000000E-01  8.50000000E-01  8.50000000E-01
  8.50000000E-01  8.50000000E-01  8.50000000E-01  8.50000000E-01  8.50000000E-01
  8.50000000E-01  8.50000000E-01  8.50000000E-01  8.50000000E-01  8.50000000E-01
  8.50000000E-01  8.50000000E-01  8.50000000E-01  8.50000000E-01  8.50000000E-01
  8.50000000E-01  8.50000000E-01  8.50000000E-01  8.50000000E-01  8.50000000E-01
  8.50000000E-01  8.50000000E-01  8.50000000E-01  8.50000000E-01  8.50000000E-01
  8.50000000E-01  8.50000000E-01  8.50000000E-01  8.50000000E-01  8.50000000E-01
  8.50000000E-01  8.50000000E-01  8.50000000E-01  8.50000000E-01  8.50000000E-01
  8.50000000E-01  8.50000000E-01  8.50000000E-01  8.50000000E-01  8.50000000E-01
  8.50000000E-01  8.50000000E-01  8.50000000E-01  8.50000000E-01  8.50000000E-01
  8.50000000E-01  8.50000000E-01  8.50000000E-01  8.50000000E-01  8.50000000E-01
  8.50000000E-01  8.50000000E-01  8.50000000E-01  8.50000000E-01  8.50000000E-01
  8.50000000E-01  8.50000000E-01  8.50000000E-01  8.50000000E-01  8.50000000E-01
  8.50000000E-01  8.50000000E-01  8.50000000E-01  8.50000000E-01  8.50000000E-01
  8.50000000E-01  8.50000000E-01  8.50000000E-01  8.50000000E-01  8.50000000E-01
  8.50000000E-01  8.50000000E-01  8.50000000E-01  8.50000000E-01  8.50000000E-01
  8.50000000E-01  8.50000000E-01  8.50000000E-01  8.50000000E-01  8.50000000E-01
  8.50000000E-01  8.50000000E-01  8.50000000E-01  8.50000000E-01  8.50000000E-01
  8.50000000E-01  8.50000000E-01  8.50000000E-01  8.50000000E-01  8.50000000E-01
  8.50000000E-01  8.50000000E-01  8.50000000E-01  8.50000000E-01  8.50000000E-01
  8.50000000E-01  8.50000000E-01  8.50000000E-01  8.50000000E-01  8.50000000E-01
  8.50000000E-01  8.50000000E-01  8.50000000E-01  8.50000000E-01  8.50000000E-01
  8.50000000E-01  8.50000000E-01  8.50000000E-01  8.50000000E-01  8.50000000E-01
  8.50000000E-01  8.50000000E-01  8.50000000E-01  8.50000000E-01  8.50000000E-01
  8.50000000E-01  8.50000000E-01  8.50000000E-01  8.50000000E-01  8.50000000E-01
  8.50000000E-01  8.50000000E-01  8.50000000E-01  8.50000000E-01  8.50000000E-01
  8.50000000E-01  8.50000000E-01  8.50000000E-01  8.50000000E-01  8.50000000E-01
  8.50000000E-01  8.50000000E-01  8.50000000E-01  8.50000000E-01  8.50000000E-01
  8.50000000E-01  8.50000000E-01  8.50000000E-01  8.50000000E-01  8.50000000E-01
  8.50000000E-01  8.50000000E-01  8.50000000E-01  8.50000000E-01  8.50000000E-01
  8.50000000E-01  8.50000000E-01  8.50000000E-01  8.50000000E-01  8.50000000E-01
  8.50000000E-01  8.50000000E-01  8.50000000E-01  8.50000000E-01  8.50000000E-01
  8.50000000E-01  8.50000000E-01  8.50000000E-01  8.50000000E-01  8.50000000E-01
  8.50000000E-01  8.50000000E-01  8.50000000E-01  8.50000000E-01  8.50000000E-01
  8.50000000E-01  8.50000000E-01  8.50000000E-01  8.50000000E-01  8.50000000E-01
  8.50000000E-01  8.50000000E-01  8.50000000E-01  8.50000000E-01  8.50000000E-01
  8.50000000E-01  8.50000000E-01  8.50000000E-01  8.50000000E-01  8.50000000E-01
  8.50000000E-01  8.50000000E-01  8.50000000E-01  8.50000000E-01  8.50000000E-01
  8.50000000E-01  8.50000000E-01  8.50000000E-01  8.50000000E-01  8.50000000E-01
  8.50000000E-01  8.50000000E-01  8.50000000E-01  8.50000000E-01  8.50000000E-01
  8.50000000E-01  8.50000000E-01  8.50000000E-01  8.50000000E-01  8.50000000E-01
  8.50000000E-01  8.50000000E-01  8.50000000E-01  8.50000000E-01  8.50000000E-01
  8.50000000E-01  8.50000000E-01  8.50000000E-01  8.50000000E-01  8.50000000E-01
  8.50000000E-01  8.50000000E-01  8.50000000E-01  8.50000000E-01  8.50000000E-01
  8.50000000E-01  8.50000000E-01  8.50000000E-01  8.50000000E-01  8.50000000E-01
  8.50000000E-01  8.50000000E-01  8.50000000E-01  8.50000000E-01  8.50000000E-01
  8.50000000E-01  8.50000000E-01  8.50000000E-01  8.50000000E-01  8.50000000E-01
  8.50000000E-01  8.50000000E-01  8.50000000E-01  8.50000000E-01  8.50000000E-01
  8.50000000E-01  8.50000000E-01  8.50000000E-01  8.50000000E-01  8.50000000E-01
  8.50000000E-01  8.50000000E-01  8.50000000E-01  8.50000000E-01  8.50000000E-01
  8.50000000E-01  8.50000000E-01  8.50000000E-01  8.50000000E-01  8.50000000E-01
  8.50000000E-01  8.50000000E-01  8.50000000E-01  8.50000000E-01  8.50000000E-01
  8.50000000E-01  8.50000000E-01  8.50000000E-01  8.50000000E-01  8.50000000E-01
  8.50000000E-01  8.50000000E-01  8.50000000E-01  8.50000000E-01  8.50000000E-01
  8.50000000E-01  8.50000000E-01  8.50000000E-01  8.50000000E-01  8.50000000E-01
  8.50000000E-01  8.50000000E-01  8.50000000E-01  8.50000000E-01  8.50000000E-01
  8.50000000E-01  8.50000000E-01  8.50000000E-01  8.50000000E-01  8.50000000E-01
  8.50000000E-01  8.50000000E-01  8.50000000E-01  8.50000000E-01  8.50000000E-01
  8.50000000E-01  8.50000000E-01  8.50000000E-01  8.50000000E-01  8.50000000E-01
  8.50000000E-01  8.50000000E-01  8.50000000E-01  8.50000000E-01  8.50000000E-01
  8.50000000E-01  8.50000000E-01  8.50000000E-01  8.50000000E-01  8.50000000E-01
  8.50000000E-01  8.50000000E-01  8.50000000E-01  8.50000000E-01  8.50000000E-01
  8.50000000E-01  8.50000000E-01  8.50000000E-01  8.50000000E-01  8.50000000E-01
  8.50000000E-01  8.50000000E-01  8.50000000E-01  8.50000000E-01  8.50000000E-01
  8.50000000E-01  8.50000000E-01  8.50000000E-01  8.50000000E-01  8.50000000E-01
  8.50000000E-01  8.50000000E-01  8.50000000E-01  8.50000000E-01  8.50000000E-01
  8.50000000E-01  8.50000000E-01  8.50000000E-01  8.50000000E-01  8.50000000E-01
  8.50000000E-01  8.50000000E-01  8.50000000E-01  8.50000000E-01  8.50000000E-01
  8.50000000E-01  8.50000000E-01  8.50000000E-01  8.50000000E-01  8.50000000E-01
  8.50000000E-01  8.50000000E-01  8.50000000E-01  8.50000000E-01  8.50000000E-01
  8.50000000E-01  8.50000000E-01  8.50000000E-01  8.50000000E-01  8.50000000E-01
  8.50000000E-01  8.50000000E-01  8.50000000E-01  8.50000000E-01  8.50000000E-01
  8.50000000E-01  8.50000000E-01  8.50000000E-01  8.50000000E-01  8.50000000E-01
  8.50000000E-01  8.50000000E-01  8.50000000E-01  8.50000000E-01  8.50000000E-01
  8.50000000E-01  8.50000000E-01  8.50000000E-01  8.50000000E-01  8.50000000E-01
  8.50000000E-01  8.50000000E-01  8.50000000E-01  8.50000000E-01  8.50000000E-01
  8.50000000E-01  8.50000000E-01  8.50000000E-01  8.50000000E-01  8.50000000E-01
  8.50000000E-01  8.50000000E-01  8.50000000E-01  8.50000000E-01  8.50000000E-01
  8.50000000E-01  8.50000000E-01  8.50000000E-01  8.50000000E-01  8.50000000E-01
  8.50000000E-01  8.50000000E-01  8.50000000E-01  8.50000000E-01  8.50000000E-01
  8.50000000E-01  8.50000000E-01  8.50000000E-01  8.50000000E-01  8.50000000E-01
  8.50000000E-01  8.50000000E-01  8.50000000E-01  8.50000000E-01  8.50000000E-01
  8.50000000E-01  8.50000000E-01  8.50000000E-01  8.50000000E-01  8.50000000E-01
  8.50000000E-01  8.50000000E-01  8.50000000E-01  8.50000000E-01  8.50000000E-01
  8.50000000E-01  8.50000000E-01  8.50000000E-01  8.50000000E-01  8.50000000E-01
  8.50000000E-01  8.50000000E-01  8.50000000E-01  8.50000000E-01  8.50000000E-01
  8.50000000E-01  8.50000000E-01  8.50000000E-01  8.50000000E-01  8.50000000E-01
  8.50000000E-01  8.50000000E-01  8.50000000E-01  8.50000000E-01  8.50000000E-01
  8.50000000E-01  8.50000000E-01  8.50000000E-01  8.50000000E-01  8.50000000E-01
  8.50000000E-01  8.50000000E-01  8.50000000E-01  8.50000000E-01  8.50000000E-01
  8.50000000E-01  8.50000000E-01  8.50000000E-01  8.50000000E-01  8.50000000E-01
  8.50000000E-01  8.50000000E-01  8.50000000E-01  8.50000000E-01  8.50000000E-01
  8.50000000E-01  8.50000000E-01  8.50000000E-01  8.50000000E-01  8.50000000E-01
  8.50000000E-01  8.50000000E-01  8.50000000E-01  8.50000000E-01  8.50000000E-01
  8.50000000E-01  8.50000000E-01  8.50000000E-01  8.50000000E-01  8.50000000E-01
  8.50000000E-01  8.50000000E-01  8.50000000E-01  8.50000000E-01  8.50000000E-01
  8.50000000E-01  8.50000000E-01  8.50000000E-01  8.50000000E-01  8.50000000E-01
  8.50000000E-01  8.50000000E-01  8.50000000E-01  8.50000000E-01  8.50000000E-01
  8.50000000E-01  8.50000000E-01  8.50000000E-01  8.50000000E-01  8.50000000E-01
  8.50000000E-01  8.50000000E-01  8.50000000E-01  8.50000000E-01  8.50000000E-01
  8.50000000E-01  8.50000000E-01  8.50000000E-01  8.50000000E-01  8.50000000E-01
  8.50000000E-01  8.50000000E-01  8.50000000E-01  8.50000000E-01  8.50000000E-01
  8.50000000E-01  8.50000000E-01  8.50000000E-01  8.50000000E-01  8.50000000E-01
  8.50000000E-01  8.50000000E-01  8.50000000E-01  8.50000000E-01  8.50000000E-01
  8.50000000E-01  8.50000000E-01  8.50000000E-01  8.50000000E-01  8.50000000E-01
  8.50000000E-01  8.50000000E-01  8.50000000E-01  8.50000000E-01  8.50000000E-01
  8.50000000E-01  8.50000000E-01  8.50000000E-01  8.50000000E-01  8.50000000E-01
  8.50000000E-01  8.50000000E-01  8.50000000E-01  8.50000000E-01  8.50000000E-01
  8.50000000E-01  8.50000000E-01  8.50000000E-01  8.50000000E-01  8.50000000E-01
  8.50000000E-01  8.50000000E-01  8.50000000E-01  8.50000000E-01  8.50000000E-01
  8.50000000E-01  8.50000000E-01  8.50000000E-01  8.50000000E-01  8.50000000E-01
  8.50000000E-01  8.50000000E-01  8.50000000E-01  8.50000000E-01  8.50000000E-01
  8.50000000E-01  8.50000000E-01  8.50000000E-01  8.50000000E-01  8.50000000E-01
  8.50000000E-01  8.50000000E-01  8.50000000E-01  8.50000000E-01  8.50000000E-01
  8.50000000E-01  8.50000000E-01  8.50000000E-01  8.50000000E-01  8.50000000E-01
  8.50000000E-01  8.50000000E-01  8.50000000E-01  8.50000000E-01  8.50000000E-01
  8.50000000E-01  8.50000000E-01  8.50000000E-01  8.50000000E-01  8.50000000E-01
  8.50000000E-01  8.50000000E-01  8.50000000E-01  8.50000000E-01  8.50000000E-01
  8.50000000E-01  8.50000000E-01  8.50000000E-01  8.50000000E-01  8.50000000E-01
  8.50000000E-01  8.50000000E-01  8.50000000E-01  8.50000000E-01  8.50000000E-01
  8.50000000E-01  8.50000000E-01  8.50000000E-01  8.50000000E-01  8.50000000E-01
  8.50000000E-01  8.50000000E-01  8.50000000E-01  8.50000000E-01  8.50000000E-01
  8.50000000E-01  8.50000000E-01  8.50000000E-01  8.50000000E-01  8.50000000E-01
  8.50000000E-01  8.50000000E-01  8.50000000E-01  8.50000000E-01  8.50000000E-01
  8.50000000E-01  8.50000000E-01  8.50000000E-01  8.50000000E-01  8.50000000E-01
  8.50000000E-01  8.50000000E-01  8.50000000E-01  8.50000000E-01  8.50000000E-01
  8.50000000E-01  8.50000000E-01  8.50000000E-01  8.50000000E-01  8.50000000E-01
  8.50000000E-01  8.50000000E-01  8.50000000E-01  8.50000000E-01  8.50000000E-01
  8.50000000E-01  8.50000000E-01  8.50000000E-01  8.50000000E-01  8.50000000E-01
  8.50000000E-01  8.50000000E-01  8.50000000E-01  8.50000000E-01  8.50000000E-01
  8.50000000E-01  8.50000000E-01  8.50000000E-01  8.50000000E-01  8.50000000E-01
  8.50000000E-01  8.50000000E-01  8.50000000E-01  8.50000000E-01  8.50000000E-01
  8.50000000E-01  8.50000000E-01  8.50000000E-01  8.50000000E-01  8.50000000E-01
  8.50000000E-01  8.50000000E-01  8.50000000E-01  8.50000000E-01  8.50000000E-01
  8.50000000E-01  8.50000000E-01  8.50000000E-01  8.50000000E-01  8.50000000E-01
  8.50000000E-01  8.50000000E-01  8.50000000E-01  8.50000000E-01  8.50000000E-01
  8.50000000E-01  8.50000000E-01  8.50000000E-01  8.50000000E-01  8.50000000E-01
  8.50000000E-01  8.50000000E-01  8.50000000E-01  8.50000000E-01  8.50000000E-01
  8.50000000E-01  8.50000000E-01  8.50000000E-01  8.50000000E-01  8.50000000E-01
  8.50000000E-01  8.50000000E-01  8.50000000E-01  8.50000000E-01  8.50000000E-01
  8.50000000E-01  8.50000000E-01  8.50000000E-01  8.50000000E-01  8.50000000E-01
  8.50000000E-01  8.50000000E-01  8.50000000E-01  8.50000000E-01  8.50000000E-01
  8.50000000E-01  8.50000000E-01  8.50000000E-01  8.50000000E-01  8.50000000E-01
  8.50000000E-01  8.50000000E-01  8.50000000E-01  8.50000000E-01  8.50000000E-01
  8.50000000E-01  8.50000000E-01  8.50000000E-01  8.50000000E-01  8.50000000E-01
  8.50000000E-01  8.50000000E-01  8.50000000E-01  8.50000000E-01  8.50000000E-01
  8.50000000E-01  8.50000000E-01  8.50000000E-01  8.50000000E-01  8.50000000E-01
  8.50000000E-01  8.50000000E-01  8.50000000E-01  8.50000000E-01  8.50000000E-01
  8.50000000E-01  8.50000000E-01  8.50000000E-01  8.50000000E-01  8.50000000E-01
  8.50000000E-01  8.50000000E-01  8.50000000E-01  8.50000000E-01  8.50000000E-01
  8.50000000E-01  8.50000000E-01  8.50000000E-01  8.50000000E-01  8.50000000E-01
  8.50000000E-01  8.50000000E-01  8.50000000E-01  8.50000000E-01  8.50000000E-01
  8.50000000E-01  8.50000000E-01  8.50000000E-01  8.50000000E-01  8.50000000E-01
  8.50000000E-01  8.50000000E-01  8.50000000E-01  8.50000000E-01  8.50000000E-01
  8.50000000E-01  8.50000000E-01  8.50000000E-01  8.50000000E-01  8.50000000E-01
  8.50000000E-01  8.50000000E-01  8.50000000E-01  8.50000000E-01  8.50000000E-01
  8.50000000E-01  8.50000000E-01  8.50000000E-01  8.50000000E-01  8.50000000E-01
  8.50000000E-01  8.50000000E-01  8.50000000E-01  8.50000000E-01  8.50000000E-01
  8.50000000E-01  8.50000000E-01  8.50000000E-01  8.50000000E-01  8.50000000E-01
  8.50000000E-01  8.50000000E-01  8.50000000E-01  8.50000000E-01  8.50000000E-01
  8.50000000E-01  8.50000000E-01  8.50000000E-01  8.50000000E-01  8.50000000E-01
  8.50000000E-01  8.50000000E-01  8.50000000E-01  8.50000000E-01  8.50000000E-01
  8.50000000E-01  8.50000000E-01  8.50000000E-01  8.50000000E-01  8.50000000E-01
  8.50000000E-01  8.50000000E-01  8.50000000E-01  8.50000000E-01  8.50000000E-01
  8.50000000E-01  8.50000000E-01  8.50000000E-01  8.50000000E-01  8.50000000E-01
  8.50000000E-01  8.50000000E-01  8.50000000E-01  8.50000000E-01  8.50000000E-01
  8.50000000E-01  8.50000000E-01  8.50000000E-01  8.50000000E-01  8.50000000E-01
  8.50000000E-01  8.50000000E-01  8.50000000E-01  8.50000000E-01  8.50000000E-01
  8.50000000E-01  8.50000000E-01  8.50000000E-01  8.50000000E-01  8.50000000E-01
  8.50000000E-01  8.50000000E-01  8.50000000E-01  8.50000000E-01  8.50000000E-01
  8.50000000E-01  8.50000000E-01  8.50000000E-01  8.50000000E-01  8.50000000E-01
  8.50000000E-01  8.50000000E-01  8.50000000E-01  8.50000000E-01  8.50000000E-01
  8.50000000E-01  8.50000000E-01  8.50000000E-01  8.50000000E-01  8.50000000E-01
  8.50000000E-01  8.50000000E-01  8.50000000E-01  8.50000000E-01  8.50000000E-01
  8.50000000E-01  8.50000000E-01  8.50000000E-01  8.50000000E-01  8.50000000E-01
  8.50000000E-01  8.50000000E-01  8.50000000E-01  8.50000000E-01  8.50000000E-01
  8.50000000E-01  8.50000000E-01  8.50000000E-01  8.50000000E-01  8.50000000E-01
  8.50000000E-01  8.50000000E-01  8.50000000E-01  8.50000000E-01  8.50000000E-01
  8.50000000E-01  8.50000000E-01  8.50000000E-01  8.50000000E-01  8.50000000E-01
  8.50000000E-01  8.50000000E-01  8.50000000E-01  8.50000000E-01  8.50000000E-01
  8.50000000E-01  8.50000000E-01  8.50000000E-01  8.50000000E-01  8.50000000E-01
  8.50000000E-01  8.50000000E-01  8.50000000E-01  8.50000000E-01  8.50000000E-01
  8.50000000E-01  8.50000000E-01  8.50000000E-01  8.50000000E-01  8.50000000E-01
  8.50000000E-01  8.50000000E-01  8.50000000E-01  8.50000000E-01  8.50000000E-01
  8.50000000E-01  8.50000000E-01  8.50000000E-01  8.50000000E-01  8.50000000E-01
  8.50000000E-01  8.50000000E-01  8.50000000E-01  8.50000000E-01  8.50000000E-01
  8.50000000E-01  8.50000000E-01  8.50000000E-01  8.50000000E-01  8.50000000E-01
  8.50000000E-01  8.50000000E-01  8.50000000E-01  8.50000000E-01  8.50000000E-01
  8.50000000E-01  8.50000000E-01  8.50000000E-01  8.50000000E-01  8.50000000E-01
  8.50000000E-01  8.50000000E-01  8.50000000E-01  8.50000000E-01  8.50000000E-01
  8.50000000E-01  8.50000000E-01  8.50000000E-01  8.50000000E-01  8.50000000E-01
  8.50000000E-01  8.50000000E-01  8.50000000E-01  8.50000000E-01  8.50000000E-01
  8.50000000E-01  8.50000000E-01  8.50000000E-01  8.50000000E-01  8.50000000E-01
  8.50000000E-01  8.50000000E-01  8.50000000E-01  8.50000000E-01  8.50000000E-01
  8.50000000E-01  8.50000000E-01  8.50000000E-01  8.50000000E-01  8.50000000E-01
  8.50000000E-01  8.50000000E-01  8.50000000E-01  8.50000000E-01  8.50000000E-01
  8.50000000E-01  8.50000000E-01  8.50000000E-01  8.50000000E-01  8.50000000E-01
  8.50000000E-01  8.50000000E-01  8.50000000E-01  8.50000000E-01  8.50000000E-01
  8.50000000E-01  8.50000000E-01  8.50000000E-01  8.50000000E-01  8.50000000E-01
  8.50000000E-01  8.50000000E-01  8.50000000E-01  8.50000000E-01  8.50000000E-01
  8.50000000E-01  8.50000000E-01  8.50000000E-01  8.50000000E-01  8.50000000E-01
  8.50000000E-01  8.50000000E-01  8.50000000E-01  8.50000000E-01  8.50000000E-01
  8.50000000E-01  8.50000000E-01  8.50000000E-01  8.50000000E-01  8.50000000E-01
  8.50000000E-01  8.50000000E-01  8.50000000E-01  8.50000000E-01  8.50000000E-01
  8.50000000E-01  8.50000000E-01  8.50000000E-01  8.50000000E-01  8.50000000E-01
  8.50000000E-01  8.50000000E-01  8.50000000E-01  8.50000000E-01  8.50000000E-01
  8.50000000E-01  8.50000000E-01  8.50000000E-01  8.50000000E-01  8.50000000E-01
  8.50000000E-01  8.50000000E-01  8.50000000E-01  8.50000000E-01  8.50000000E-01
  8.50000000E-01  8.50000000E-01  8.50000000E-01  8.50000000E-01  8.50000000E-01
  8.50000000E-01  8.50000000E-01  8.50000000E-01  8.50000000E-01  8.50000000E-01
  8.50000000E-01  8.50000000E-01  8.50000000E-01  8.50000000E-01  8.50000000E-01
  8.50000000E-01  8.50000000E-01  8.50000000E-01  8.50000000E-01  8.50000000E-01
  8.50000000E-01  8.50000000E-01  8.50000000E-01  8.50000000E-01  8.50000000E-01
  8.50000000E-01  8.50000000E-01  8.50000000E-01  8.50000000E-01  8.50000000E-01
  8.50000000E-01  8.50000000E-01  8.50000000E-01  8.50000000E-01  8.50000000E-01
  8.50000000E-01  8.50000000E-01  8.50000000E-01  8.50000000E-01  8.50000000E-01
  8.50000000E-01  8.50000000E-01  8.50000000E-01  8.50000000E-01  8.50000000E-01
  8.50000000E-01  8.50000000E-01  8.50000000E-01  8.50000000E-01  8.50000000E-01
  8.50000000E-01  8.50000000E-01  8.50000000E-01  8.50000000E-01  8.50000000E-01
  8.50000000E-01  8.50000000E-01  8.50000000E-01  8.50000000E-01  8.50000000E-01
  8.50000000E-01  8.50000000E-01  8.50000000E-01  8.50000000E-01  8.50000000E-01
  8.50000000E-01  8.50000000E-01  8.50000000E-01  8.50000000E-01  8.50000000E-01
  8.50000000E-01  8.50000000E-01  8.50000000E-01  8.50000000E-01  8.50000000E-01
  8.50000000E-01  8.50000000E-01  8.50000000E-01  8.50000000E-01  8.50000000E-01
  8.50000000E-01  8.50000000E-01  8.50000000E-01  8.50000000E-01  8.50000000E-01
  8.50000000E-01  8.50000000E-01  8.50000000E-01  8.50000000E-01  8.50000000E-01
  8.50000000E-01  8.50000000E-01  8.50000000E-01  8.50000000E-01  8.50000000E-01
  8.50000000E-01  8.50000000E-01  8.50000000E-01  8.50000000E-01  8.50000000E-01
  8.50000000E-01  8.50000000E-01  8.50000000E-01  8.50000000E-01  8.50000000E-01
  8.50000000E-01  8.50000000E-01  8.50000000E-01  8.50000000E-01  8.50000000E-01
  8.50000000E-01  8.50000000E-01  8.50000000E-01  8.50000000E-01  8.50000000E-01
  8.50000000E-01  8.50000000E-01  8.50000000E-01  8.50000000E-01  8.50000000E-01
  8.50000000E-01  8.50000000E-01  8.50000000E-01  8.50000000E-01  8.50000000E-01
  8.50000000E-01  8.50000000E-01  8.50000000E-01  8.50000000E-01  8.50000000E-01
  8.50000000E-01  8.50000000E-01  8.50000000E-01  8.50000000E-01  8.50000000E-01
  8.50000000E-01  8.50000000E-01  8.50000000E-01  8.50000000E-01  8.50000000E-01
  8.50000000E-01  8.50000000E-01  8.50000000E-01  8.50000000E-01  8.50000000E-01
  8.50000000E-01  8.50000000E-01  8.50000000E-01  8.50000000E-01  8.50000000E-01
  8.50000000E-01  8.50000000E-01  8.50000000E-01  8.50000000E-01  8.50000000E-01
  8.50000000E-01  8.50000000E-01  8.50000000E-01  8.50000000E-01  8.50000000E-01
  8.50000000E-01  8.50000000E-01  8.50000000E-01  8.50000000E-01  8.50000000E-01
  8.50000000E-01  8.50000000E-01  8.50000000E-01  8.50000000E-01  8.50000000E-01
  8.50000000E-01  8.50000000E-01  8.50000000E-01  8.50000000E-01  8.50000000E-01
  8.50000000E-01  8.50000000E-01  8.50000000E-01  8.50000000E-01  8.50000000E-01
  8.50000000E-01  8.50000000E-01  8.50000000E-01  8.50000000E-01  8.50000000E-01
  8.50000000E-01  8.50000000E-01  8.50000000E-01  8.50000000E-01  8.50000000E-01
  8.50000000E-01  8.50000000E-01  8.50000000E-01  8.50000000E-01  8.50000000E-01
  8.50000000E-01  8.50000000E-01  8.50000000E-01  8.50000000E-01  8.50000000E-01
  8.50000000E-01  8.50000000E-01  8.50000000E-01  8.50000000E-01  8.50000000E-01
  8.50000000E-01  8.50000000E-01  8.50000000E-01  8.50000000E-01  8.50000000E-01
  8.50000000E-01  8.50000000E-01  8.50000000E-01  8.50000000E-01  8.50000000E-01
  8.50000000E-01  8.50000000E-01  8.50000000E-01  8.50000000E-01  8.50000000E-01
  8.50000000E-01  8.50000000E-01  8.50000000E-01  8.50000000E-01  8.50000000E-01
  8.50000000E-01  8.50000000E-01  8.50000000E-01  8.50000000E-01  8.50000000E-01
  8.50000000E-01  8.50000000E-01  8.50000000E-01  8.50000000E-01  8.50000000E-01
  8.50000000E-01  8.50000000E-01  8.50000000E-01  8.50000000E-01  8.50000000E-01
  8.50000000E-01  8.50000000E-01  8.50000000E-01  8.50000000E-01  8.50000000E-01
  8.50000000E-01  8.50000000E-01  8.50000000E-01  8.50000000E-01  8.50000000E-01
  8.50000000E-01  8.50000000E-01  8.50000000E-01  8.50000000E-01  8.50000000E-01
  8.50000000E-01  8.50000000E-01  8.50000000E-01  8.50000000E-01  8.50000000E-01
  8.50000000E-01  8.50000000E-01  8.50000000E-01  8.50000000E-01  8.50000000E-01
  8.50000000E-01  8.50000000E-01  8.50000000E-01  8.50000000E-01  8.50000000E-01
  8.50000000E-01  8.50000000E-01  8.50000000E-01  8.50000000E-01  8.50000000E-01
  8.50000000E-01  8.50000000E-01  8.50000000E-01  8.50000000E-01  8.50000000E-01
  8.50000000E-01  8.50000000E-01  8.50000000E-01  8.50000000E-01  8.50000000E-01
  8.50000000E-01  8.50000000E-01  8.50000000E-01  8.50000000E-01  8.50000000E-01
  8.50000000E-01  8.50000000E-01  8.50000000E-01  8.50000000E-01  8.50000000E-01
  8.50000000E-01  8.50000000E-01  8.50000000E-01  8.50000000E-01  8.50000000E-01
  8.50000000E-01  8.50000000E-01  8.50000000E-01  8.50000000E-01  8.50000000E-01
  8.50000000E-01  8.50000000E-01  8.50000000E-01  8.50000000E-01  8.50000000E-01
  8.50000000E-01  8.50000000E-01  8.50000000E-01  8.50000000E-01  8.50000000E-01
  8.50000000E-01  8.50000000E-01  8.50000000E-01  8.50000000E-01  8.50000000E-01
  8.50000000E-01  8.50000000E-01  8.50000000E-01  8.50000000E-01  8.50000000E-01
  8.50000000E-01  8.50000000E-01  8.50000000E-01  8.50000000E-01  8.50000000E-01
  8.50000000E-01  8.50000000E-01  8.50000000E-01  8.50000000E-01  8.50000000E-01
  8.50000000E-01  8.50000000E-01  8.50000000E-01  8.50000000E-01  8.50000000E-01
  8.50000000E-01  8.50000000E-01  8.50000000E-01  8.50000000E-01  8.50000000E-01
  8.50000000E-01  8.50000000E-01  8.50000000E-01  8.50000000E-01  8.50000000E-01
  8.50000000E-01  8.50000000E-01  8.50000000E-01  8.50000000E-01  8.50000000E-01
  8.50000000E-01  8.50000000E-01  8.50000000E-01  8.50000000E-01  8.50000000E-01
  8.50000000E-01  8.50000000E-01  8.50000000E-01  8.50000000E-01  8.50000000E-01
  8.50000000E-01  8.50000000E-01  8.50000000E-01  8.50000000E-01  8.50000000E-01
  8.50000000E-01  8.50000000E-01  8.50000000E-01  8.50000000E-01  8.50000000E-01
  8.50000000E-01  8.50000000E-01  8.50000000E-01  8.50000000E-01  8.50000000E-01
  8.50000000E-01  8.50000000E-01  8.50000000E-01  8.50000000E-01  8.50000000E-01
  8.50000000E-01  8.50000000E-01  8.50000000E-01  8.50000000E-01  8.50000000E-01
  8.50000000E-01  8.50000000E-01  8.50000000E-01  8.50000000E-01  8.50000000E-01
  8.50000000E-01  8.50000000E-01  8.50000000E-01  8.50000000E-01  8.50000000E-01
  8.50000000E-01  8.50000000E-01  8.50000000E-01  8.50000000E-01  8.50000000E-01
  8.50000000E-01  8.50000000E-01  8.50000000E-01  8.50000000E-01  8.50000000E-01
  8.50000000E-01  8.50000000E-01  8.50000000E-01  8.50000000E-01  8.50000000E-01
  8.50000000E-01  8.50000000E-01  8.50000000E-01  8.50000000E-01  8.50000000E-01
  8.50000000E-01  8.50000000E-01  8.50000000E-01  8.50000000E-01  8.50000000E-01
  8.50000000E-01  8.50000000E-01  8.50000000E-01  8.50000000E-01  8.50000000E-01
  8.50000000E-01  8.50000000E-01  8.50000000E-01  8.50000000E-01  8.50000000E-01
  8.50000000E-01  8.50000000E-01  8.50000000E-01  8.50000000E-01  8.50000000E-01
  8.50000000E-01  8.50000000E-01  8.50000000E-01  8.50000000E-01  8.50000000E-01
  8.50000000E-01  8.50000000E-01  8.50000000E-01  8.50000000E-01  8.50000000E-01
  8.50000000E-01  8.50000000E-01  8.50000000E-01  8.50000000E-01  8.50000000E-01
  8.50000000E-01  8.50000000E-01  8.50000000E-01  8.50000000E-01  8.50000000E-01
  8.50000000E-01  8.50000000E-01  8.50000000E-01  8.50000000E-01  8.50000000E-01
  8.50000000E-01  8.50000000E-01  8.50000000E-01  8.50000000E-01  8.50000000E-01
  8.50000000E-01  8.50000000E-01  8.50000000E-01  8.50000000E-01  8.50000000E-01
  8.50000000E-01  8.50000000E-01  8.50000000E-01  8.50000000E-01  8.50000000E-01
  8.50000000E-01  8.50000000E-01  8.50000000E-01  8.50000000E-01  8.50000000E-01
  8.50000000E-01  8.50000000E-01  8.50000000E-01  8.50000000E-01  8.50000000E-01
  8.50000000E-01  8.50000000E-01  8.50000000E-01  8.50000000E-01  8.50000000E-01
  8.50000000E-01  8.50000000E-01  8.50000000E-01  8.50000000E-01  8.50000000E-01
  8.50000000E-01  8.50000000E-01  8.50000000E-01  8.50000000E-01  8.50000000E-01
  8.50000000E-01  8.50000000E-01  8.50000000E-01  8.50000000E-01  8.50000000E-01
  8.50000000E-01  8.50000000E-01  8.50000000E-01  8.50000000E-01  8.50000000E-01
  8.50000000E-01  8.50000000E-01  8.50000000E-01  8.50000000E-01  8.50000000E-01
  8.50000000E-01  8.50000000E-01  8.50000000E-01  8.50000000E-01  8.50000000E-01
  8.50000000E-01  8.50000000E-01  8.50000000E-01  8.50000000E-01  8.50000000E-01
  8.50000000E-01  8.50000000E-01  8.50000000E-01  8.50000000E-01  8.50000000E-01
  8.50000000E-01  8.50000000E-01  8.50000000E-01  8.50000000E-01  8.50000000E-01
  8.50000000E-01  8.50000000E-01  8.50000000E-01  8.50000000E-01  8.50000000E-01
  8.50000000E-01  8.50000000E-01  8.50000000E-01  8.50000000E-01  8.50000000E-01
  8.50000000E-01  8.50000000E-01  8.50000000E-01  8.50000000E-01  8.50000000E-01
  8.50000000E-01  8.50000000E-01  8.50000000E-01  8.50000000E-01  8.50000000E-01
  8.50000000E-01  8.50000000E-01  8.50000000E-01  8.50000000E-01  8.50000000E-01
  8.50000000E-01  8.50000000E-01  8.50000000E-01  8.50000000E-01  8.50000000E-01
  8.50000000E-01  8.50000000E-01  8.50000000E-01  8.50000000E-01  8.50000000E-01
  8.50000000E-01  8.50000000E-01  8.50000000E-01  8.50000000E-01  8.50000000E-01
  8.50000000E-01  8.50000000E-01  8.50000000E-01  8.50000000E-01  8.50000000E-01
  8.50000000E-01  8.50000000E-01  8.50000000E-01  8.50000000E-01  8.50000000E-01
  8.50000000E-01  8.50000000E-01  8.50000000E-01  8.50000000E-01  8.50000000E-01
  8.50000000E-01  8.50000000E-01  8.50000000E-01  8.50000000E-01  8.50000000E-01
  8.50000000E-01  8.50000000E-01  8.50000000E-01  8.50000000E-01  8.50000000E-01
  8.50000000E-01  8.50000000E-01  8.50000000E-01  8.50000000E-01  8.50000000E-01
  8.50000000E-01  8.50000000E-01  8.50000000E-01  8.50000000E-01  8.50000000E-01
  8.50000000E-01  8.50000000E-01  8.50000000E-01  8.50000000E-01  8.50000000E-01
  8.50000000E-01  8.50000000E-01  8.50000000E-01  8.50000000E-01  8.50000000E-01
  8.50000000E-01  8.50000000E-01  8.50000000E-01  8.50000000E-01  8.50000000E-01
  8.50000000E-01  8.50000000E-01  8.50000000E-01  8.50000000E-01  8.50000000E-01
  8.50000000E-01  8.50000000E-01  8.50000000E-01  8.50000000E-01  8.50000000E-01
  8.50000000E-01  8.50000000E-01  8.50000000E-01  8.50000000E-01  8.50000000E-01
  8.50000000E-01  8.50000000E-01  8.50000000E-01  8.50000000E-01  8.50000000E-01
  8.50000000E-01  8.50000000E-01  8.50000000E-01  8.50000000E-01  8.50000000E-01
  8.50000000E-01  8.50000000E-01  8.50000000E-01  8.50000000E-01  8.50000000E-01
  8.50000000E-01  8.50000000E-01  8.50000000E-01  8.50000000E-01  8.50000000E-01
  8.50000000E-01  8.50000000E-01  8.50000000E-01  8.50000000E-01  8.50000000E-01
  8.50000000E-01  8.50000000E-01  8.50000000E-01  8.50000000E-01  8.50000000E-01
  8.50000000E-01  8.50000000E-01  8.50000000E-01  8.50000000E-01  8.50000000E-01
  8.50000000E-01  8.50000000E-01  8.50000000E-01  8.50000000E-01  8.50000000E-01
  8.50000000E-01  8.50000000E-01  8.50000000E-01  8.50000000E-01  8.50000000E-01
  8.50000000E-01  8.50000000E-01  8.50000000E-01  8.50000000E-01  8.50000000E-01
  8.50000000E-01  8.50000000E-01  8.50000000E-01  8.50000000E-01  8.50000000E-01
  8.50000000E-01  8.50000000E-01  8.50000000E-01  8.50000000E-01  8.50000000E-01
  8.50000000E-01  8.50000000E-01  8.50000000E-01  8.50000000E-01  8.50000000E-01
  8.50000000E-01  8.50000000E-01  8.50000000E-01  8.50000000E-01  8.50000000E-01
  8.50000000E-01  8.50000000E-01  8.50000000E-01  8.50000000E-01  8.50000000E-01
  8.50000000E-01  8.50000000E-01  8.50000000E-01  8.50000000E-01  8.50000000E-01
  8.50000000E-01  8.50000000E-01  8.50000000E-01  8.50000000E-01  8.50000000E-01
  8.50000000E-01  8.50000000E-01  8.50000000E-01  8.50000000E-01  8.50000000E-01
  8.50000000E-01  8.50000000E-01  8.50000000E-01  8.50000000E-01  8.50000000E-01
  8.50000000E-01  8.50000000E-01  8.50000000E-01  8.50000000E-01  8.50000000E-01
  8.50000000E-01  8.50000000E-01  8.50000000E-01  8.50000000E-01  8.50000000E-01
  8.50000000E-01  8.50000000E-01  8.50000000E-01  8.50000000E-01  8.50000000E-01
  8.50000000E-01  8.50000000E-01  8.50000000E-01  8.50000000E-01  8.50000000E-01
  8.50000000E-01  8.50000000E-01  8.50000000E-01  8.50000000E-01  8.50000000E-01
  8.50000000E-01  8.50000000E-01  8.50000000E-01  8.50000000E-01  8.50000000E-01
  8.50000000E-01  8.50000000E-01  8.50000000E-01  8.50000000E-01  8.50000000E-01
  8.50000000E-01  8.50000000E-01  8.50000000E-01  8.50000000E-01  8.50000000E-01
  8.50000000E-01  8.50000000E-01  8.50000000E-01  8.50000000E-01  8.50000000E-01
  8.50000000E-01  8.50000000E-01  8.50000000E-01  8.50000000E-01  8.50000000E-01
  8.50000000E-01  8.50000000E-01  8.50000000E-01  8.50000000E-01  8.50000000E-01
  8.50000000E-01  8.50000000E-01  8.50000000E-01  8.50000000E-01  8.50000000E-01
  8.50000000E-01  8.50000000E-01  8.50000000E-01  8.50000000E-01  8.50000000E-01
  8.50000000E-01  8.50000000E-01  8.50000000E-01  8.50000000E-01  8.50000000E-01
  8.50000000E-01  8.50000000E-01  8.50000000E-01  8.50000000E-01  8.50000000E-01
  8.50000000E-01  8.50000000E-01  8.50000000E-01  8.50000000E-01  8.50000000E-01
  8.50000000E-01  8.50000000E-01  8.50000000E-01  8.50000000E-01  8.50000000E-01
  8.50000000E-01  8.50000000E-01  8.50000000E-01  8.50000000E-01  8.50000000E-01
  8.50000000E-01  8.50000000E-01  8.50000000E-01  8.50000000E-01  8.50000000E-01
  8.50000000E-01  8.50000000E-01  8.50000000E-01  8.50000000E-01  8.50000000E-01
  8.50000000E-01  8.50000000E-01  8.50000000E-01  8.50000000E-01  8.50000000E-01
  8.50000000E-01  8.50000000E-01  8.50000000E-01  8.50000000E-01  8.50000000E-01
  8.50000000E-01  8.50000000E-01  8.50000000E-01  8.50000000E-01  8.50000000E-01
  8.50000000E-01  8.50000000E-01  8.50000000E-01  8.50000000E-01  8.50000000E-01
  8.50000000E-01  8.50000000E-01  8.50000000E-01  8.50000000E-01  8.50000000E-01
  8.50000000E-01  8.50000000E-01  8.50000000E-01  8.50000000E-01  8.50000000E-01
  8.50000000E-01  8.50000000E-01  8.50000000E-01  8.50000000E-01  8.50000000E-01
  8.50000000E-01  8.50000000E-01  8.50000000E-01  8.50000000E-01  8.50000000E-01
  8.50000000E-01  8.50000000E-01  8.50000000E-01  8.50000000E-01  8.50000000E-01
  8.50000000E-01  8.50000000E-01  8.50000000E-01  8.50000000E-01  8.50000000E-01
  8.50000000E-01  8.50000000E-01  8.50000000E-01  8.50000000E-01  8.50000000E-01
  8.50000000E-01  8.50000000E-01  8.50000000E-01  8.50000000E-01  8.50000000E-01
  8.50000000E-01  8.50000000E-01  8.50000000E-01  8.50000000E-01  8.50000000E-01
  8.50000000E-01  8.50000000E-01  8.50000000E-01  8.50000000E-01  8.50000000E-01
  8.50000000E-01  8.50000000E-01  8.50000000E-01  8.50000000E-01  8.50000000E-01
  8.50000000E-01  8.50000000E-01  8.50000000E-01  8.50000000E-01  8.50000000E-01
  8.50000000E-01  8.50000000E-01  8.50000000E-01  8.50000000E-01  8.50000000E-01
  8.50000000E-01  8.50000000E-01  8.50000000E-01  8.50000000E-01  8.50000000E-01
  8.50000000E-01  8.50000000E-01  8.50000000E-01  8.50000000E-01  8.50000000E-01
  8.50000000E-01  8.50000000E-01  8.50000000E-01  8.50000000E-01  8.50000000E-01
  8.50000000E-01  8.50000000E-01  8.50000000E-01  8.50000000E-01  8.50000000E-01
  8.50000000E-01  8.50000000E-01  8.50000000E-01  8.50000000E-01  8.50000000E-01
  8.50000000E-01  8.50000000E-01  8.50000000E-01  8.50000000E-01  8.50000000E-01
  8.50000000E-01  8.50000000E-01  8.50000000E-01  8.50000000E-01  8.50000000E-01
  8.50000000E-01  8.50000000E-01  8.50000000E-01  8.50000000E-01  8.50000000E-01
  8.50000000E-01  8.50000000E-01  8.50000000E-01  8.50000000E-01  8.50000000E-01
  8.50000000E-01  8.50000000E-01  8.50000000E-01  8.50000000E-01  8.50000000E-01
  8.50000000E-01  8.50000000E-01  8.50000000E-01  8.50000000E-01  8.50000000E-01
  8.50000000E-01  8.50000000E-01  8.50000000E-01  8.50000000E-01  8.50000000E-01
  8.50000000E-01  8.50000000E-01  8.50000000E-01  8.50000000E-01  8.50000000E-01
  8.50000000E-01  8.50000000E-01  8.50000000E-01  8.50000000E-01  8.50000000E-01
  8.50000000E-01  8.50000000E-01  8.50000000E-01  8.50000000E-01  8.50000000E-01
  8.50000000E-01  8.50000000E-01  8.50000000E-01  8.50000000E-01  8.50000000E-01
  8.50000000E-01  8.50000000E-01  8.50000000E-01  8.50000000E-01  8.50000000E-01
  8.50000000E-01  8.50000000E-01  8.50000000E-01  8.50000000E-01  8.50000000E-01
  8.50000000E-01  8.50000000E-01  8.50000000E-01  8.50000000E-01  8.50000000E-01
  8.50000000E-01  8.50000000E-01  8.50000000E-01  8.50000000E-01  8.50000000E-01
  8.50000000E-01  8.50000000E-01  8.50000000E-01  8.50000000E-01  8.50000000E-01
  8.50000000E-01  8.50000000E-01  8.50000000E-01  8.50000000E-01  8.50000000E-01
  8.50000000E-01  8.50000000E-01  8.50000000E-01  8.50000000E-01  8.50000000E-01
  8.50000000E-01  8.50000000E-01  8.50000000E-01  8.50000000E-01  8.50000000E-01
  8.50000000E-01  8.50000000E-01  8.50000000E-01  8.50000000E-01  8.50000000E-01
  8.50000000E-01  8.50000000E-01  8.50000000E-01  8.50000000E-01  8.50000000E-01
  8.50000000E-01  8.50000000E-01  8.50000000E-01  8.50000000E-01  8.50000000E-01
  8.50000000E-01  8.50000000E-01  8.50000000E-01  8.50000000E-01  8.50000000E-01
  8.50000000E-01  8.50000000E-01  8.50000000E-01  8.50000000E-01  8.50000000E-01
  8.50000000E-01  8.50000000E-01  8.50000000E-01  8.50000000E-01  8.50000000E-01
  8.50000000E-01  8.50000000E-01  8.50000000E-01  8.50000000E-01  8.50000000E-01
  8.50000000E-01  8.50000000E-01  8.50000000E-01  8.50000000E-01  8.50000000E-01
  8.50000000E-01  8.50000000E-01  8.50000000E-01  8.50000000E-01  8.50000000E-01
  8.50000000E-01  8.50000000E-01  8.50000000E-01  8.50000000E-01  8.50000000E-01
  8.50000000E-01  8.50000000E-01  8.50000000E-01  8.50000000E-01  8.50000000E-01
  8.50000000E-01  8.50000000E-01  8.50000000E-01  8.50000000E-01  8.50000000E-01
  8.50000000E-01  8.50000000E-01  8.50000000E-01  8.50000000E-01  8.50000000E-01
  8.50000000E-01  8.50000000E-01  8.50000000E-01  8.50000000E-01  8.50000000E-01
  8.50000000E-01  8.50000000E-01  8.50000000E-01  8.50000000E-01  8.50000000E-01
  8.50000000E-01  8.50000000E-01  8.50000000E-01  8.50000000E-01  8.50000000E-01
  8.50000000E-01  8.50000000E-01  8.50000000E-01  8.50000000E-01  8.50000000E-01
  8.50000000E-01  8.50000000E-01  8.50000000E-01  8.50000000E-01  8.50000000E-01
  8.50000000E-01  8.50000000E-01  8.50000000E-01  8.50000000E-01  8.50000000E-01
  8.50000000E-01  8.50000000E-01  8.50000000E-01  8.50000000E-01  8.50000000E-01
  8.50000000E-01  8.50000000E-01  8.50000000E-01  8.50000000E-01  8.50000000E-01
  8.50000000E-01  8.50000000E-01  8.50000000E-01  8.50000000E-01  8.50000000E-01
  8.50000000E-01  8.50000000E-01  8.50000000E-01  8.50000000E-01  8.50000000E-01
  8.50000000E-01  8.50000000E-01  8.50000000E-01  8.50000000E-01  8.50000000E-01
  8.50000000E-01  8.50000000E-01  8.50000000E-01  8.50000000E-01  8.50000000E-01
  8.50000000E-01  8.50000000E-01  8.50000000E-01  8.50000000E-01  8.50000000E-01
  8.50000000E-01  8.50000000E-01  8.50000000E-01  8.50000000E-01  8.50000000E-01
  8.50000000E-01  8.50000000E-01  8.50000000E-01  8.50000000E-01  8.50000000E-01
  8.50000000E-01  8.50000000E-01  8.50000000E-01  8.50000000E-01  8.50000000E-01
  8.50000000E-01  8.50000000E-01  8.50000000E-01  8.50000000E-01  8.50000000E-01
  8.50000000E-01  8.50000000E-01  8.50000000E-01  8.50000000E-01  8.50000000E-01
  8.50000000E-01  8.50000000E-01  8.50000000E-01  8.50000000E-01  8.50000000E-01
  8.50000000E-01  8.50000000E-01  8.50000000E-01  8.50000000E-01  8.50000000E-01
  8.50000000E-01  8.50000000E-01  8.50000000E-01  8.50000000E-01  8.50000000E-01
  8.50000000E-01  8.50000000E-01  8.50000000E-01  8.50000000E-01  8.50000000E-01
  8.50000000E-01  8.50000000E-01  8.50000000E-01  8.50000000E-01  8.50000000E-01
  8.50000000E-01  8.50000000E-01  8.50000000E-01  8.50000000E-01  8.50000000E-01
  8.50000000E-01  8.50000000E-01  8.50000000E-01  8.50000000E-01  8.50000000E-01
  8.50000000E-01  8.50000000E-01  8.50000000E-01  8.50000000E-01  8.50000000E-01
  8.50000000E-01  8.50000000E-01  8.50000000E-01  8.50000000E-01  8.50000000E-01
  8.50000000E-01  8.50000000E-01  8.50000000E-01  8.50000000E-01  8.50000000E-01
  8.50000000E-01  8.50000000E-01  8.50000000E-01  8.50000000E-01  8.50000000E-01
  8.50000000E-01  8.50000000E-01  8.50000000E-01  8.50000000E-01  8.50000000E-01
  8.50000000E-01  8.50000000E-01  8.50000000E-01  8.50000000E-01  8.50000000E-01
  8.50000000E-01  8.50000000E-01  8.50000000E-01  8.50000000E-01  8.50000000E-01
  8.50000000E-01  8.50000000E-01  8.50000000E-01  8.50000000E-01  8.50000000E-01
  8.50000000E-01  8.50000000E-01  8.50000000E-01  8.50000000E-01  8.50000000E-01
  8.50000000E-01  8.50000000E-01  8.50000000E-01  8.50000000E-01  8.50000000E-01
  8.50000000E-01  8.50000000E-01  8.50000000E-01  8.50000000E-01  8.50000000E-01
  8.50000000E-01  8.50000000E-01  8.50000000E-01  8.50000000E-01  8.50000000E-01
  8.50000000E-01  8.50000000E-01  8.50000000E-01  8.50000000E-01  8.50000000E-01
  8.50000000E-01  8.50000000E-01  8.50000000E-01  8.50000000E-01  8.50000000E-01
  8.50000000E-01  8.50000000E-01  8.50000000E-01  8.50000000E-01  8.50000000E-01
  8.50000000E-01  8.50000000E-01  8.50000000E-01  8.50000000E-01  8.50000000E-01
  8.50000000E-01  8.50000000E-01  8.50000000E-01  8.50000000E-01  8.50000000E-01
  8.50000000E-01  8.50000000E-01  8.50000000E-01  8.50000000E-01  8.50000000E-01
  8.50000000E-01  8.50000000E-01  8.50000000E-01  8.50000000E-01  8.50000000E-01
  8.50000000E-01  8.50000000E-01  8.50000000E-01  8.50000000E-01  8.50000000E-01
  8.50000000E-01  8.50000000E-01  8.50000000E-01  8.50000000E-01  8.50000000E-01
  8.50000000E-01  8.50000000E-01  8.50000000E-01  8.50000000E-01  8.50000000E-01
  8.50000000E-01  8.50000000E-01  8.50000000E-01  8.50000000E-01  8.50000000E-01
  8.50000000E-01  8.50000000E-01  8.50000000E-01  8.50000000E-01  8.50000000E-01
  8.50000000E-01  8.50000000E-01  8.50000000E-01  8.50000000E-01  8.50000000E-01
  8.50000000E-01  8.50000000E-01  8.50000000E-01  8.50000000E-01  8.50000000E-01
  8.50000000E-01  8.50000000E-01  8.50000000E-01  8.50000000E-01  8.50000000E-01
  8.50000000E-01  8.50000000E-01  8.50000000E-01  8.50000000E-01  8.50000000E-01
  8.50000000E-01  8.50000000E-01  8.50000000E-01  8.50000000E-01  8.50000000E-01
  8.50000000E-01  8.50000000E-01  8.50000000E-01  8.50000000E-01  8.50000000E-01
  8.50000000E-01  8.50000000E-01  8.50000000E-01  8.50000000E-01  8.50000000E-01
  8.50000000E-01  8.50000000E-01  8.50000000E-01  8.50000000E-01  8.50000000E-01
  8.50000000E-01  8.50000000E-01  8.50000000E-01  8.50000000E-01  8.50000000E-01
  8.50000000E-01  8.50000000E-01  8.50000000E-01  8.50000000E-01  8.50000000E-01
  8.50000000E-01  8.50000000E-01  8.50000000E-01  8.50000000E-01  8.50000000E-01
  8.50000000E-01  8.50000000E-01  8.50000000E-01  8.50000000E-01  8.50000000E-01
  8.50000000E-01  8.50000000E-01  8.50000000E-01  8.50000000E-01  8.50000000E-01
  8.50000000E-01  8.50000000E-01  8.50000000E-01  8.50000000E-01  8.50000000E-01
  8.50000000E-01  8.50000000E-01  8.50000000E-01  8.50000000E-01  8.50000000E-01
  8.50000000E-01  8.50000000E-01  8.50000000E-01  8.50000000E-01  8.50000000E-01
  8.50000000E-01  8.50000000E-01  8.50000000E-01  8.50000000E-01  8.50000000E-01
  8.50000000E-01  8.50000000E-01  8.50000000E-01  8.50000000E-01  8.50000000E-01
  8.50000000E-01  8.50000000E-01  8.50000000E-01  8.50000000E-01  8.50000000E-01
  8.50000000E-01  8.50000000E-01  8.50000000E-01  8.50000000E-01  8.50000000E-01
  8.50000000E-01  8.50000000E-01  8.50000000E-01  8.50000000E-01  8.50000000E-01
  8.50000000E-01  8.50000000E-01  8.50000000E-01  8.50000000E-01  8.50000000E-01
  8.50000000E-01  8.50000000E-01  8.50000000E-01  8.50000000E-01  8.50000000E-01
  8.50000000E-01  8.50000000E-01  8.50000000E-01  8.50000000E-01  8.50000000E-01
  8.50000000E-01  8.50000000E-01  8.50000000E-01  8.50000000E-01  8.50000000E-01
  8.50000000E-01  8.50000000E-01  8.50000000E-01  8.50000000E-01  8.50000000E-01
  8.50000000E-01  8.50000000E-01  8.50000000E-01  8.50000000E-01  8.50000000E-01
  8.50000000E-01  8.50000000E-01  8.50000000E-01  8.50000000E-01  8.50000000E-01
  8.50000000E-01  8.50000000E-01  8.50000000E-01  8.50000000E-01  8.50000000E-01
  8.50000000E-01  8.50000000E-01  8.50000000E-01  8.50000000E-01  8.50000000E-01
  8.50000000E-01  8.50000000E-01  8.50000000E-01  8.50000000E-01  8.50000000E-01
  8.50000000E-01  8.50000000E-01  8.50000000E-01  8.50000000E-01  8.50000000E-01
  8.50000000E-01  8.50000000E-01  8.50000000E-01  8.50000000E-01  8.50000000E-01
  8.50000000E-01  8.50000000E-01  8.50000000E-01  8.50000000E-01  8.50000000E-01
  8.50000000E-01  8.50000000E-01  8.50000000E-01  8.50000000E-01  8.50000000E-01
  8.50000000E-01  8.50000000E-01  8.50000000E-01  8.50000000E-01  8.50000000E-01
  8.50000000E-01  8.50000000E-01  8.50000000E-01  8.50000000E-01  8.50000000E-01
  8.50000000E-01  8.50000000E-01  8.50000000E-01  8.50000000E-01  8.50000000E-01
  8.50000000E-01  8.50000000E-01  8.50000000E-01  8.50000000E-01  8.50000000E-01
  8.50000000E-01  8.50000000E-01  8.50000000E-01  8.50000000E-01  8.50000000E-01
  8.50000000E-01  8.50000000E-01  8.50000000E-01  8.50000000E-01  8.50000000E-01
  8.50000000E-01  8.50000000E-01  8.50000000E-01  8.50000000E-01  8.50000000E-01
  8.50000000E-01  8.50000000E-01  8.50000000E-01  8.50000000E-01  8.50000000E-01
  8.50000000E-01  8.50000000E-01  8.50000000E-01  8.50000000E-01  8.50000000E-01
  8.50000000E-01  8.50000000E-01  8.50000000E-01  8.50000000E-01  8.50000000E-01
  8.50000000E-01  8.50000000E-01  8.50000000E-01  8.50000000E-01  8.50000000E-01
  8.50000000E-01  8.50000000E-01  8.50000000E-01  8.50000000E-01  8.50000000E-01
  8.50000000E-01  8.50000000E-01  8.50000000E-01  8.50000000E-01  8.50000000E-01
  8.50000000E-01  8.50000000E-01  8.50000000E-01  8.50000000E-01  8.50000000E-01
  8.50000000E-01  8.50000000E-01  8.50000000E-01  8.50000000E-01  8.50000000E-01
  8.50000000E-01  8.50000000E-01  8.50000000E-01  8.50000000E-01  8.50000000E-01
  8.50000000E-01  8.50000000E-01  8.50000000E-01  8.50000000E-01  8.50000000E-01
  8.50000000E-01  8.50000000E-01  8.50000000E-01  8.50000000E-01  8.50000000E-01
  8.50000000E-01  8.50000000E-01  8.50000000E-01  8.50000000E-01  8.50000000E-01
  8.50000000E-01  8.50000000E-01  8.50000000E-01  8.50000000E-01  8.50000000E-01
  8.50000000E-01  8.50000000E-01  8.50000000E-01  8.50000000E-01  8.50000000E-01
  8.50000000E-01  8.50000000E-01  8.50000000E-01  8.50000000E-01  8.50000000E-01
  8.50000000E-01  8.50000000E-01  8.50000000E-01  8.50000000E-01  8.50000000E-01
  8.50000000E-01  8.50000000E-01  8.50000000E-01  8.50000000E-01  8.50000000E-01
  8.50000000E-01  8.50000000E-01  8.50000000E-01  8.50000000E-01  8.50000000E-01
  8.50000000E-01  8.50000000E-01  8.50000000E-01  8.50000000E-01  8.50000000E-01
  8.50000000E-01  8.50000000E-01  8.50000000E-01  8.50000000E-01  8.50000000E-01
  8.50000000E-01  8.50000000E-01  8.50000000E-01  8.50000000E-01  8.50000000E-01
  8.50000000E-01  8.50000000E-01  8.50000000E-01  8.50000000E-01  8.50000000E-01
  8.50000000E-01  8.50000000E-01  8.50000000E-01  8.50000000E-01  8.50000000E-01
  8.50000000E-01  8.50000000E-01  8.50000000E-01  8.50000000E-01  8.50000000E-01
  8.50000000E-01  8.50000000E-01  8.50000000E-01  8.50000000E-01  8.50000000E-01
  8.50000000E-01  8.50000000E-01  8.50000000E-01  8.50000000E-01  8.50000000E-01
  8.50000000E-01  8.50000000E-01  8.50000000E-01  8.50000000E-01  8.50000000E-01
  8.50000000E-01  8.50000000E-01  8.50000000E-01  8.50000000E-01  8.50000000E-01
  8.50000000E-01  8.50000000E-01  8.50000000E-01  8.50000000E-01  8.50000000E-01
  8.50000000E-01  8.50000000E-01  8.50000000E-01  8.50000000E-01  8.50000000E-01
  8.50000000E-01  8.50000000E-01  8.50000000E-01  8.50000000E-01  8.50000000E-01
  8.50000000E-01  8.50000000E-01  8.50000000E-01  8.50000000E-01  8.50000000E-01
  8.50000000E-01  8.50000000E-01  8.50000000E-01  8.50000000E-01  8.50000000E-01
  8.50000000E-01  8.50000000E-01  8.50000000E-01  8.50000000E-01  8.50000000E-01
  8.50000000E-01  8.50000000E-01  8.50000000E-01  8.50000000E-01  8.50000000E-01
  8.50000000E-01  8.50000000E-01  8.50000000E-01  8.50000000E-01  8.50000000E-01
  8.50000000E-01  8.50000000E-01  8.50000000E-01  8.50000000E-01  8.50000000E-01
  8.50000000E-01  8.50000000E-01  8.50000000E-01  8.50000000E-01  8.50000000E-01
  8.50000000E-01  8.50000000E-01  8.50000000E-01  8.50000000E-01  8.50000000E-01
  8.50000000E-01  8.50000000E-01  8.50000000E-01  8.50000000E-01  8.50000000E-01
  8.50000000E-01  8.50000000E-01  8.50000000E-01  8.50000000E-01  8.50000000E-01
  8.50000000E-01  8.50000000E-01  8.50000000E-01  8.50000000E-01  8.50000000E-01
  8.50000000E-01  8.50000000E-01  8.50000000E-01  8.50000000E-01  8.50000000E-01
  8.50000000E-01  8.50000000E-01  8.50000000E-01  8.50000000E-01  8.50000000E-01
  8.50000000E-01  8.50000000E-01  8.50000000E-01  8.50000000E-01  8.50000000E-01
  8.50000000E-01  8.50000000E-01  8.50000000E-01  8.50000000E-01  8.50000000E-01
  8.50000000E-01  8.50000000E-01  8.50000000E-01  8.50000000E-01  8.50000000E-01
  8.50000000E-01  8.50000000E-01  8.50000000E-01  8.50000000E-01  8.50000000E-01
  8.50000000E-01  8.50000000E-01  8.50000000E-01  8.50000000E-01  8.50000000E-01
  8.50000000E-01  8.50000000E-01  8.50000000E-01  8.50000000E-01  8.50000000E-01
  8.50000000E-01  8.50000000E-01  8.50000000E-01  8.50000000E-01  8.50000000E-01
  8.50000000E-01  8.50000000E-01  8.50000000E-01  8.50000000E-01  8.50000000E-01
  8.50000000E-01  8.50000000E-01  8.50000000E-01  8.50000000E-01  8.50000000E-01
  8.50000000E-01  8.50000000E-01  8.50000000E-01  8.50000000E-01  8.50000000E-01
  8.50000000E-01  8.50000000E-01  8.50000000E-01  8.50000000E-01  8.50000000E-01
  8.50000000E-01  8.50000000E-01  8.50000000E-01  8.50000000E-01  8.50000000E-01
  8.50000000E-01  8.50000000E-01  8.50000000E-01  8.50000000E-01  8.50000000E-01
  8.50000000E-01  8.50000000E-01  8.50000000E-01  8.50000000E-01  8.50000000E-01
  8.50000000E-01  8.50000000E-01  8.50000000E-01  8.50000000E-01  8.50000000E-01
  8.50000000E-01  8.50000000E-01  8.50000000E-01  8.50000000E-01  8.50000000E-01
  8.50000000E-01  8.50000000E-01  8.50000000E-01  8.50000000E-01  8.50000000E-01
  8.50000000E-01  8.50000000E-01  8.50000000E-01  8.50000000E-01  8.50000000E-01
  8.50000000E-01  8.50000000E-01  8.50000000E-01  8.50000000E-01  8.50000000E-01
  8.50000000E-01  8.50000000E-01  8.50000000E-01  8.50000000E-01  8.50000000E-01
  8.50000000E-01  8.50000000E-01  8.50000000E-01  8.50000000E-01  8.50000000E-01
  8.50000000E-01  8.50000000E-01  8.50000000E-01  8.50000000E-01  8.50000000E-01
  8.50000000E-01  8.50000000E-01  8.50000000E-01  8.50000000E-01  8.50000000E-01
  8.50000000E-01  8.50000000E-01  8.50000000E-01  8.50000000E-01  8.50000000E-01
  8.50000000E-01  8.50000000E-01  8.50000000E-01  8.50000000E-01  8.50000000E-01
  8.50000000E-01  8.50000000E-01  8.50000000E-01  8.50000000E-01  8.50000000E-01
  8.50000000E-01  8.50000000E-01  8.50000000E-01  8.50000000E-01  8.50000000E-01
  8.50000000E-01  8.50000000E-01  8.50000000E-01  8.50000000E-01  8.50000000E-01
  8.50000000E-01  8.50000000E-01  8.50000000E-01  8.50000000E-01  8.50000000E-01
  8.50000000E-01  8.50000000E-01  8.50000000E-01  8.50000000E-01  8.50000000E-01
  8.50000000E-01  8.50000000E-01  8.50000000E-01  8.50000000E-01  8.50000000E-01
  8.50000000E-01  8.50000000E-01  8.50000000E-01  8.50000000E-01  8.50000000E-01
  8.50000000E-01  8.50000000E-01  8.50000000E-01  8.50000000E-01  8.50000000E-01
  8.50000000E-01  8.50000000E-01  8.50000000E-01  8.50000000E-01  8.50000000E-01
  8.50000000E-01  8.50000000E-01  8.50000000E-01  8.50000000E-01  8.50000000E-01
  8.50000000E-01  8.50000000E-01  8.50000000E-01  8.50000000E-01  8.50000000E-01
  8.50000000E-01  8.50000000E-01  8.50000000E-01  8.50000000E-01  8.50000000E-01
  8.50000000E-01  8.50000000E-01  8.50000000E-01  8.50000000E-01  8.50000000E-01
  8.50000000E-01  8.50000000E-01  8.50000000E-01  8.50000000E-01  8.50000000E-01
  8.50000000E-01  8.50000000E-01  8.50000000E-01  8.50000000E-01  8.50000000E-01
  8.50000000E-01  8.50000000E-01  8.50000000E-01  8.50000000E-01  8.50000000E-01
  8.50000000E-01  8.50000000E-01  8.50000000E-01  8.50000000E-01  8.50000000E-01
  8.50000000E-01  8.50000000E-01  8.50000000E-01  8.50000000E-01  8.50000000E-01
  8.50000000E-01  8.50000000E-01  8.50000000E-01  8.50000000E-01  8.50000000E-01
  8.50000000E-01  8.50000000E-01  8.50000000E-01  8.50000000E-01  8.50000000E-01
  8.50000000E-01  8.50000000E-01  8.50000000E-01  8.50000000E-01  8.50000000E-01
  8.50000000E-01  8.50000000E-01  8.50000000E-01  8.50000000E-01  8.50000000E-01
  8.50000000E-01  8.50000000E-01  8.50000000E-01  8.50000000E-01  8.50000000E-01
  8.50000000E-01  8.50000000E-01  8.50000000E-01  8.50000000E-01  8.50000000E-01
  8.50000000E-01  8.50000000E-01  8.50000000E-01  8.50000000E-01  8.50000000E-01
  8.50000000E-01  8.50000000E-01  8.50000000E-01  8.50000000E-01  8.50000000E-01
  8.50000000E-01  8.50000000E-01  8.50000000E-01  8.50000000E-01  8.50000000E-01
  8.50000000E-01  8.50000000E-01  8.50000000E-01  8.50000000E-01  8.50000000E-01
  8.50000000E-01  8.50000000E-01  8.50000000E-01  8.50000000E-01  8.50000000E-01
  8.50000000E-01  8.50000000E-01  8.50000000E-01  8.50000000E-01  8.50000000E-01
  8.50000000E-01  8.50000000E-01  8.50000000E-01  8.50000000E-01  8.50000000E-01
  8.50000000E-01  8.50000000E-01  8.50000000E-01  8.50000000E-01  8.50000000E-01
  8.50000000E-01  8.50000000E-01  8.50000000E-01  8.50000000E-01  8.50000000E-01
  8.50000000E-01  8.50000000E-01  8.50000000E-01  8.50000000E-01  8.50000000E-01
  8.50000000E-01  8.50000000E-01  8.50000000E-01  8.50000000E-01  8.50000000E-01
  8.50000000E-01  8.50000000E-01  8.50000000E-01  8.50000000E-01  8.50000000E-01
  8.50000000E-01  8.50000000E-01  8.50000000E-01  8.50000000E-01  8.50000000E-01
  8.50000000E-01  8.50000000E-01  8.50000000E-01  8.50000000E-01  8.50000000E-01
  8.50000000E-01  8.50000000E-01  8.50000000E-01  8.50000000E-01  8.50000000E-01
  8.50000000E-01  8.50000000E-01  8.50000000E-01  8.50000000E-01  8.50000000E-01
  8.50000000E-01  8.50000000E-01  8.50000000E-01  8.50000000E-01  8.50000000E-01
  8.50000000E-01  8.50000000E-01  8.50000000E-01  8.50000000E-01  8.50000000E-01
  8.50000000E-01  8.50000000E-01  8.50000000E-01  8.50000000E-01  8.50000000E-01
  8.50000000E-01  8.50000000E-01  8.50000000E-01  8.50000000E-01  8.50000000E-01
  8.50000000E-01  8.50000000E-01  8.50000000E-01  8.50000000E-01  8.50000000E-01
  8.50000000E-01  8.50000000E-01  8.50000000E-01  8.50000000E-01  8.50000000E-01
  8.50000000E-01  8.50000000E-01  8.50000000E-01  8.50000000E-01  8.50000000E-01
  8.50000000E-01  8.50000000E-01  8.50000000E-01  8.50000000E-01  8.50000000E-01
  8.50000000E-01  8.50000000E-01  8.50000000E-01  8.50000000E-01  8.50000000E-01
  8.50000000E-01  8.50000000E-01  8.50000000E-01  8.50000000E-01  8.50000000E-01
  8.50000000E-01  8.50000000E-01  8.50000000E-01  8.50000000E-01  8.50000000E-01
  8.50000000E-01  8.50000000E-01  8.50000000E-01  8.50000000E-01  8.50000000E-01
  8.50000000E-01  8.50000000E-01  8.50000000E-01  8.50000000E-01  8.50000000E-01
  8.50000000E-01  8.50000000E-01  8.50000000E-01  8.50000000E-01  8.50000000E-01
  8.50000000E-01  8.50000000E-01  8.50000000E-01  8.50000000E-01  8.50000000E-01
  8.50000000E-01  8.50000000E-01  8.50000000E-01  8.50000000E-01  8.50000000E-01
  8.50000000E-01  8.50000000E-01  8.50000000E-01  8.50000000E-01  8.50000000E-01
  8.50000000E-01  8.50000000E-01  8.50000000E-01  8.50000000E-01  8.50000000E-01
  8.50000000E-01  8.50000000E-01  8.50000000E-01  8.50000000E-01  8.50000000E-01
  8.50000000E-01  8.50000000E-01  8.50000000E-01  8.50000000E-01  8.50000000E-01
  8.50000000E-01  8.50000000E-01  8.50000000E-01  8.50000000E-01  8.50000000E-01
  8.50000000E-01  8.50000000E-01  8.50000000E-01  8.50000000E-01  8.50000000E-01
  8.50000000E-01  8.50000000E-01  8.50000000E-01  8.50000000E-01  8.50000000E-01
  8.50000000E-01  8.50000000E-01  8.50000000E-01  8.50000000E-01  8.50000000E-01
  8.50000000E-01  8.50000000E-01  8.50000000E-01  8.50000000E-01  8.50000000E-01
  8.50000000E-01  8.50000000E-01  8.50000000E-01  8.50000000E-01  8.50000000E-01
  8.50000000E-01  8.50000000E-01  8.50000000E-01  8.50000000E-01  8.50000000E-01
  8.50000000E-01  8.50000000E-01  8.50000000E-01  8.50000000E-01  8.50000000E-01
  8.50000000E-01  8.50000000E-01  8.50000000E-01  8.50000000E-01  8.50000000E-01
  8.50000000E-01  8.50000000E-01  8.50000000E-01  8.50000000E-01  8.50000000E-01
  8.50000000E-01  8.50000000E-01  8.50000000E-01  8.50000000E-01  8.50000000E-01
  8.50000000E-01  8.50000000E-01  8.50000000E-01  8.50000000E-01  8.50000000E-01
  8.50000000E-01  8.50000000E-01  8.50000000E-01  8.50000000E-01  8.50000000E-01
  8.50000000E-01  8.50000000E-01  8.50000000E-01  8.50000000E-01  8.50000000E-01
  8.50000000E-01  8.50000000E-01  8.50000000E-01  8.50000000E-01  8.50000000E-01
  8.50000000E-01  8.50000000E-01  8.50000000E-01  8.50000000E-01  8.50000000E-01
  8.50000000E-01  8.50000000E-01  8.50000000E-01  8.50000000E-01  8.50000000E-01
  8.50000000E-01  8.50000000E-01  8.50000000E-01  8.50000000E-01  8.50000000E-01
  8.50000000E-01  8.50000000E-01  8.50000000E-01  8.50000000E-01  8.50000000E-01
  8.50000000E-01  8.50000000E-01  8.50000000E-01  8.50000000E-01  8.50000000E-01
  8.50000000E-01  8.50000000E-01  8.50000000E-01  8.50000000E-01  8.50000000E-01
  8.50000000E-01  8.50000000E-01  8.50000000E-01  8.50000000E-01  8.50000000E-01
  8.50000000E-01  8.50000000E-01  8.50000000E-01  8.50000000E-01  8.50000000E-01
  8.50000000E-01  8.50000000E-01  8.50000000E-01  8.50000000E-01  8.50000000E-01
  8.50000000E-01  8.50000000E-01  8.50000000E-01  8.50000000E-01  8.50000000E-01
  8.50000000E-01  8.50000000E-01  8.50000000E-01  8.50000000E-01  8.50000000E-01
  8.50000000E-01  8.50000000E-01  8.50000000E-01  8.50000000E-01  8.50000000E-01
  8.50000000E-01  8.50000000E-01  8.50000000E-01  8.50000000E-01  8.50000000E-01
  8.50000000E-01  8.50000000E-01  8.50000000E-01  8.50000000E-01  8.50000000E-01
  8.50000000E-01  8.50000000E-01  8.50000000E-01  8.50000000E-01  8.50000000E-01
  8.50000000E-01  8.50000000E-01  8.50000000E-01  8.50000000E-01  8.50000000E-01
  8.50000000E-01  8.50000000E-01  8.50000000E-01  8.50000000E-01  8.50000000E-01
  8.50000000E-01  8.50000000E-01  8.50000000E-01  8.50000000E-01  8.50000000E-01
  8.50000000E-01  8.50000000E-01  8.50000000E-01  8.50000000E-01  8.50000000E-01
  8.50000000E-01  8.50000000E-01  8.50000000E-01  8.50000000E-01  8.50000000E-01
  8.50000000E-01  8.50000000E-01  8.50000000E-01  8.50000000E-01  8.50000000E-01
  8.50000000E-01  8.50000000E-01  8.50000000E-01  8.50000000E-01  8.50000000E-01
  8.50000000E-01  8.50000000E-01  8.50000000E-01  8.50000000E-01  8.50000000E-01
  8.50000000E-01  8.50000000E-01  8.50000000E-01  8.50000000E-01  8.50000000E-01
  8.50000000E-01  8.50000000E-01  8.50000000E-01  8.50000000E-01  8.50000000E-01
  8.50000000E-01  8.50000000E-01  8.50000000E-01  8.50000000E-01  8.50000000E-01
  8.50000000E-01  8.50000000E-01  8.50000000E-01  8.50000000E-01  8.50000000E-01
  8.50000000E-01  8.50000000E-01  8.50000000E-01  8.50000000E-01  8.50000000E-01
  8.50000000E-01  8.50000000E-01  8.50000000E-01  8.50000000E-01  8.50000000E-01
  8.50000000E-01  8.50000000E-01  8.50000000E-01  8.50000000E-01  8.50000000E-01
  8.50000000E-01  8.50000000E-01  8.50000000E-01  8.50000000E-01  8.50000000E-01
  8.50000000E-01  8.50000000E-01  8.50000000E-01  8.50000000E-01  8.50000000E-01
  8.50000000E-01  8.50000000E-01  8.50000000E-01  8.50000000E-01  8.50000000E-01
  8.50000000E-01  8.50000000E-01  8.50000000E-01  8.50000000E-01  8.50000000E-01
  8.50000000E-01  8.50000000E-01  8.50000000E-01  8.50000000E-01  8.50000000E-01
  8.50000000E-01  8.50000000E-01  8.50000000E-01  8.50000000E-01  8.50000000E-01
  8.50000000E-01  8.50000000E-01  8.50000000E-01  8.50000000E-01  8.50000000E-01
  8.50000000E-01  8.50000000E-01  8.50000000E-01  8.50000000E-01  8.50000000E-01
  8.50000000E-01  8.50000000E-01  8.50000000E-01  8.50000000E-01  8.50000000E-01
  8.50000000E-01  8.50000000E-01  8.50000000E-01  8.50000000E-01  8.50000000E-01
  8.50000000E-01  8.50000000E-01  8.50000000E-01  8.50000000E-01  8.50000000E-01
  8.50000000E-01  8.50000000E-01  8.50000000E-01  8.50000000E-01  8.50000000E-01
  8.50000000E-01  8.50000000E-01  8.50000000E-01  8.50000000E-01  8.50000000E-01
  8.50000000E-01  8.50000000E-01  8.50000000E-01  8.50000000E-01  8.50000000E-01
  8.50000000E-01  8.50000000E-01  8.50000000E-01  8.50000000E-01  8.50000000E-01
  8.50000000E-01  8.50000000E-01  8.50000000E-01  8.50000000E-01  8.50000000E-01
  8.50000000E-01  8.50000000E-01  8.50000000E-01  8.50000000E-01  8.50000000E-01
  8.50000000E-01  8.50000000E-01  8.50000000E-01  8.50000000E-01  8.50000000E-01
  8.50000000E-01  8.50000000E-01  8.50000000E-01  8.50000000E-01  8.50000000E-01
  8.50000000E-01  8.50000000E-01  8.50000000E-01  8.50000000E-01  8.50000000E-01
  8.50000000E-01  8.50000000E-01  8.50000000E-01  8.50000000E-01  8.50000000E-01
  8.50000000E-01  8.50000000E-01  8.50000000E-01  8.50000000E-01  8.50000000E-01
  8.50000000E-01  8.50000000E-01  8.50000000E-01  8.50000000E-01  8.50000000E-01
  8.50000000E-01  8.50000000E-01  8.50000000E-01  8.50000000E-01  8.50000000E-01
  8.50000000E-01  8.50000000E-01  8.50000000E-01  8.50000000E-01  8.50000000E-01
  8.50000000E-01  8.50000000E-01  8.50000000E-01  8.50000000E-01  8.50000000E-01
  8.50000000E-01  8.50000000E-01  8.50000000E-01  8.50000000E-01  8.50000000E-01
  8.50000000E-01  8.50000000E-01  8.50000000E-01  8.50000000E-01  8.50000000E-01
  8.50000000E-01  8.50000000E-01  8.50000000E-01  8.50000000E-01  8.50000000E-01
  8.50000000E-01  8.50000000E-01  8.50000000E-01  8.50000000E-01  8.50000000E-01
  8.50000000E-01  8.50000000E-01  8.50000000E-01  8.50000000E-01  8.50000000E-01
  8.50000000E-01  8.50000000E-01  8.50000000E-01  8.50000000E-01  8.50000000E-01
  8.50000000E-01  8.50000000E-01  8.50000000E-01  8.50000000E-01  8.50000000E-01
  8.50000000E-01  8.50000000E-01  8.50000000E-01  8.50000000E-01  8.50000000E-01
  8.50000000E-01  8.50000000E-01  8.50000000E-01  8.50000000E-01  8.50000000E-01
  8.50000000E-01  8.50000000E-01  8.50000000E-01  8.50000000E-01  8.50000000E-01
  8.50000000E-01  8.50000000E-01  8.50000000E-01  8.50000000E-01  8.50000000E-01
  8.50000000E-01  8.50000000E-01  8.50000000E-01  8.50000000E-01  8.50000000E-01
  8.50000000E-01  8.50000000E-01  8.50000000E-01  8.50000000E-01  8.50000000E-01
  8.50000000E-01  8.50000000E-01  8.50000000E-01  8.50000000E-01  8.50000000E-01
  8.50000000E-01  8.50000000E-01  8.50000000E-01  8.50000000E-01  8.50000000E-01
  8.50000000E-01  8.50000000E-01  8.50000000E-01  8.50000000E-01  8.50000000E-01
  8.50000000E-01  8.50000000E-01  8.50000000E-01  8.50000000E-01  8.50000000E-01
  8.50000000E-01  8.50000000E-01  8.50000000E-01  8.50000000E-01  8.50000000E-01
  8.50000000E-01  8.50000000E-01  8.50000000E-01  8.50000000E-01  8.50000000E-01
  8.50000000E-01  8.50000000E-01  8.50000000E-01  8.50000000E-01  8.50000000E-01
  8.50000000E-01  8.50000000E-01  8.50000000E-01  8.50000000E-01  8.50000000E-01
  8.50000000E-01  8.50000000E-01  8.50000000E-01  8.50000000E-01  8.50000000E-01
  8.50000000E-01  8.50000000E-01  8.50000000E-01  8.50000000E-01  8.50000000E-01
  8.50000000E-01  8.50000000E-01  8.50000000E-01  8.50000000E-01  8.50000000E-01
  8.50000000E-01  8.50000000E-01  8.50000000E-01  8.50000000E-01  8.50000000E-01
  8.50000000E-01  8.50000000E-01  8.50000000E-01  8.50000000E-01  8.50000000E-01
  8.50000000E-01  8.50000000E-01  8.50000000E-01  8.50000000E-01  8.50000000E-01
  8.50000000E-01  8.50000000E-01  8.50000000E-01  8.50000000E-01  8.50000000E-01
  8.50000000E-01  8.50000000E-01  8.50000000E-01  8.50000000E-01  8.50000000E-01
  8.50000000E-01  8.50000000E-01  8.50000000E-01  8.50000000E-01  8.50000000E-01
  8.50000000E-01  8.50000000E-01  8.50000000E-01  8.50000000E-01  8.50000000E-01
  8.50000000E-01  8.50000000E-01  8.50000000E-01  8.50000000E-01  8.50000000E-01
  8.50000000E-01  8.50000000E-01  8.50000000E-01  8.50000000E-01  8.50000000E-01
  8.50000000E-01  8.50000000E-01  8.50000000E-01  8.50000000E-01  8.50000000E-01
  8.50000000E-01  8.50000000E-01  8.50000000E-01  8.50000000E-01  8.50000000E-01
  8.50000000E-01  8.50000000E-01  8.50000000E-01  8.50000000E-01  8.50000000E-01
  8.50000000E-01  8.50000000E-01  8.50000000E-01  8.50000000E-01  8.50000000E-01
  8.50000000E-01  8.50000000E-01  8.50000000E-01  8.50000000E-01  8.50000000E-01
  8.50000000E-01  8.50000000E-01  8.50000000E-01  8.50000000E-01  8.50000000E-01
  8.50000000E-01  8.50000000E-01  8.50000000E-01  8.50000000E-01  8.50000000E-01
  8.50000000E-01  8.50000000E-01  8.50000000E-01  8.50000000E-01  8.50000000E-01
  8.50000000E-01  8.50000000E-01  8.50000000E-01  8.50000000E-01  8.50000000E-01
  8.50000000E-01  8.50000000E-01  8.50000000E-01  8.50000000E-01  8.50000000E-01
  8.50000000E-01  8.50000000E-01  8.50000000E-01  8.50000000E-01  8.50000000E-01
  8.50000000E-01  8.50000000E-01  8.50000000E-01  8.50000000E-01  8.50000000E-01
  8.50000000E-01  8.50000000E-01  8.50000000E-01  8.50000000E-01  8.50000000E-01
  8.50000000E-01  8.50000000E-01  8.50000000E-01  8.50000000E-01  8.50000000E-01
  8.50000000E-01  8.50000000E-01  8.50000000E-01  8.50000000E-01  8.50000000E-01
  8.50000000E-01  8.50000000E-01  8.50000000E-01  8.50000000E-01  8.50000000E-01
  8.50000000E-01  8.50000000E-01  8.50000000E-01  8.50000000E-01  8.50000000E-01
  8.50000000E-01  8.50000000E-01  8.50000000E-01  8.50000000E-01  8.50000000E-01
  8.50000000E-01  8.50000000E-01  8.50000000E-01  8.50000000E-01  8.50000000E-01
  8.50000000E-01  8.50000000E-01  8.50000000E-01  8.50000000E-01  8.50000000E-01
  8.50000000E-01  8.50000000E-01  8.50000000E-01  8.50000000E-01  8.50000000E-01
  8.50000000E-01  8.50000000E-01  8.50000000E-01  8.50000000E-01  8.50000000E-01
  8.50000000E-01  8.50000000E-01  8.50000000E-01  8.50000000E-01  8.50000000E-01
  8.50000000E-01  8.50000000E-01  8.50000000E-01  8.50000000E-01  8.50000000E-01
  8.50000000E-01  8.50000000E-01  8.50000000E-01  8.50000000E-01  8.50000000E-01
  8.50000000E-01  8.50000000E-01  8.50000000E-01  8.50000000E-01  8.50000000E-01
  8.50000000E-01  8.50000000E-01  8.50000000E-01  8.50000000E-01  8.50000000E-01
  8.50000000E-01  8.50000000E-01  8.50000000E-01  8.50000000E-01  8.50000000E-01
  8.50000000E-01  8.50000000E-01  8.50000000E-01  8.50000000E-01  8.50000000E-01
  8.50000000E-01  8.50000000E-01  8.50000000E-01  8.50000000E-01  8.50000000E-01
  8.50000000E-01  8.50000000E-01  8.50000000E-01  8.50000000E-01  8.50000000E-01
  8.50000000E-01  8.50000000E-01  8.50000000E-01  8.50000000E-01  8.50000000E-01
  8.50000000E-01  8.50000000E-01  8.50000000E-01  8.50000000E-01  8.50000000E-01
  8.50000000E-01  8.50000000E-01  8.50000000E-01  8.50000000E-01  8.50000000E-01
  8.50000000E-01  8.50000000E-01  8.50000000E-01  8.50000000E-01  8.50000000E-01
  8.50000000E-01  8.50000000E-01  8.50000000E-01  8.50000000E-01  8.50000000E-01
  8.50000000E-01  8.50000000E-01  8.50000000E-01  8.50000000E-01  8.50000000E-01
  8.50000000E-01  8.50000000E-01  8.50000000E-01  8.50000000E-01  8.50000000E-01
  8.50000000E-01  8.50000000E-01  8.50000000E-01  8.50000000E-01  8.50000000E-01
  8.50000000E-01  8.50000000E-01  8.50000000E-01  8.50000000E-01  8.50000000E-01
  8.50000000E-01  8.50000000E-01  8.50000000E-01  8.50000000E-01  8.50000000E-01
  8.50000000E-01  8.50000000E-01  8.50000000E-01  8.50000000E-01  8.50000000E-01
  8.50000000E-01  8.50000000E-01  8.50000000E-01  8.50000000E-01  8.50000000E-01
  8.50000000E-01  8.50000000E-01  8.50000000E-01  8.50000000E-01  8.50000000E-01
  8.50000000E-01  8.50000000E-01  8.50000000E-01  8.50000000E-01  8.50000000E-01
  8.50000000E-01  8.50000000E-01  8.50000000E-01  8.50000000E-01  8.50000000E-01
  8.50000000E-01  8.50000000E-01  8.50000000E-01  8.50000000E-01  8.50000000E-01
  8.50000000E-01  8.50000000E-01  8.50000000E-01  8.50000000E-01  8.50000000E-01
  8.50000000E-01  8.50000000E-01  8.50000000E-01  8.50000000E-01  8.50000000E-01
  8.50000000E-01  8.50000000E-01  8.50000000E-01  8.50000000E-01  8.50000000E-01
  8.50000000E-01  8.50000000E-01  8.50000000E-01  8.50000000E-01  8.50000000E-01
  8.50000000E-01  8.50000000E-01  8.50000000E-01  8.50000000E-01  8.50000000E-01
  8.50000000E-01  8.50000000E-01  8.50000000E-01  8.50000000E-01  8.50000000E-01
  8.50000000E-01  8.50000000E-01  8.50000000E-01  8.50000000E-01  8.50000000E-01
  8.50000000E-01  8.50000000E-01  8.50000000E-01  8.50000000E-01  8.50000000E-01
  8.50000000E-01  8.50000000E-01  8.50000000E-01  8.50000000E-01  8.50000000E-01
  8.50000000E-01  8.50000000E-01  8.50000000E-01  8.50000000E-01  8.50000000E-01
  8.50000000E-01  8.50000000E-01  8.50000000E-01  8.50000000E-01  8.50000000E-01
  8.50000000E-01  8.50000000E-01  8.50000000E-01  8.50000000E-01  8.50000000E-01
  8.50000000E-01  8.50000000E-01  8.50000000E-01  8.50000000E-01  8.50000000E-01
  8.50000000E-01  8.50000000E-01  8.50000000E-01  8.50000000E-01  8.50000000E-01
  8.50000000E-01  8.50000000E-01  8.50000000E-01  8.50000000E-01  8.50000000E-01
  8.50000000E-01  8.50000000E-01  8.50000000E-01  8.50000000E-01  8.50000000E-01
  8.50000000E-01  8.50000000E-01  8.50000000E-01  8.50000000E-01  8.50000000E-01
  8.50000000E-01  8.50000000E-01  8.50000000E-01  8.50000000E-01  8.50000000E-01
  8.50000000E-01  8.50000000E-01  8.50000000E-01  8.50000000E-01  8.50000000E-01
  8.50000000E-01  8.50000000E-01  8.50000000E-01  8.50000000E-01  8.50000000E-01
  8.50000000E-01  8.50000000E-01  8.50000000E-01  8.50000000E-01  8.50000000E-01
  8.50000000E-01  8.50000000E-01  8.50000000E-01  8.50000000E-01  8.50000000E-01
  8.50000000E-01  8.50000000E-01  8.50000000E-01  8.50000000E-01  8.50000000E-01
  8.50000000E-01  8.50000000E-01  8.50000000E-01  8.50000000E-01  8.50000000E-01
  8.50000000E-01  8.50000000E-01  8.50000000E-01  8.50000000E-01  8.50000000E-01
  8.50000000E-01  8.50000000E-01  8.50000000E-01  8.50000000E-01  8.50000000E-01
  8.50000000E-01  8.50000000E-01  8.50000000E-01  8.50000000E-01  8.50000000E-01
  8.50000000E-01  8.50000000E-01  8.50000000E-01  8.50000000E-01  8.50000000E-01
  8.50000000E-01  8.50000000E-01  8.50000000E-01  8.50000000E-01  8.50000000E-01
  8.50000000E-01  8.50000000E-01  8.50000000E-01  8.50000000E-01  8.50000000E-01
  8.50000000E-01  8.50000000E-01  8.50000000E-01  8.50000000E-01  8.50000000E-01
  8.50000000E-01  8.50000000E-01  8.50000000E-01  8.50000000E-01  8.50000000E-01
  8.50000000E-01  8.50000000E-01  8.50000000E-01  8.50000000E-01  8.50000000E-01
  8.50000000E-01  8.50000000E-01  8.50000000E-01  8.50000000E-01  8.50000000E-01
  8.50000000E-01  8.50000000E-01  8.50000000E-01  8.50000000E-01  8.50000000E-01
  8.50000000E-01  8.50000000E-01  8.50000000E-01  8.50000000E-01  8.50000000E-01
  8.50000000E-01  8.50000000E-01  8.50000000E-01  8.50000000E-01  8.50000000E-01
  8.50000000E-01  8.50000000E-01  8.50000000E-01  8.50000000E-01  8.50000000E-01
  8.50000000E-01  8.50000000E-01  8.50000000E-01  8.50000000E-01  8.50000000E-01
  8.50000000E-01  8.50000000E-01  8.50000000E-01  8.50000000E-01  8.50000000E-01
  8.50000000E-01  8.50000000E-01  8.50000000E-01  8.50000000E-01  8.50000000E-01
  8.50000000E-01  8.50000000E-01  8.50000000E-01  8.50000000E-01  8.50000000E-01
  8.50000000E-01  8.50000000E-01  8.50000000E-01  8.50000000E-01  8.50000000E-01
  8.50000000E-01  8.50000000E-01  8.50000000E-01  8.50000000E-01  8.50000000E-01
  8.50000000E-01  8.50000000E-01  8.50000000E-01  8.50000000E-01  8.50000000E-01
  8.50000000E-01  8.50000000E-01  8.50000000E-01  8.50000000E-01  8.50000000E-01
  8.50000000E-01  8.50000000E-01  8.50000000E-01  8.50000000E-01  8.50000000E-01
  8.50000000E-01  8.50000000E-01  8.50000000E-01  8.50000000E-01  8.50000000E-01
  8.50000000E-01  8.50000000E-01  8.50000000E-01  8.50000000E-01  8.50000000E-01
  8.50000000E-01  8.50000000E-01  8.50000000E-01  8.50000000E-01  8.50000000E-01
  8.50000000E-01  8.50000000E-01  8.50000000E-01  8.50000000E-01  8.50000000E-01
  8.50000000E-01  8.50000000E-01  8.50000000E-01  8.50000000E-01  8.50000000E-01
  8.50000000E-01  8.50000000E-01  8.50000000E-01  8.50000000E-01  8.50000000E-01
  8.50000000E-01  8.50000000E-01  8.50000000E-01  8.50000000E-01  8.50000000E-01
  8.50000000E-01  8.50000000E-01  8.50000000E-01  8.50000000E-01  8.50000000E-01
  8.50000000E-01  8.50000000E-01  8.50000000E-01  8.50000000E-01  8.50000000E-01
  8.50000000E-01  8.50000000E-01  8.50000000E-01  8.50000000E-01  8.50000000E-01
  8.50000000E-01  8.50000000E-01  8.50000000E-01  8.50000000E-01  8.50000000E-01
  8.50000000E-01  8.50000000E-01  8.50000000E-01  8.50000000E-01  8.50000000E-01
  8.50000000E-01  8.50000000E-01  8.50000000E-01  8.50000000E-01  8.50000000E-01
  8.50000000E-01  8.50000000E-01  8.50000000E-01  8.50000000E-01  8.50000000E-01
  8.50000000E-01  8.50000000E-01  8.50000000E-01  8.50000000E-01  8.50000000E-01
  8.50000000E-01  8.50000000E-01  8.50000000E-01  8.50000000E-01  8.50000000E-01
  8.50000000E-01  8.50000000E-01  8.50000000E-01  8.50000000E-01  8.50000000E-01
  8.50000000E-01  8.50000000E-01  8.50000000E-01  8.50000000E-01  8.50000000E-01
  8.50000000E-01  8.50000000E-01  8.50000000E-01  8.50000000E-01  8.50000000E-01
  8.50000000E-01  8.50000000E-01  8.50000000E-01  8.50000000E-01  8.50000000E-01
  8.50000000E-01  8.50000000E-01  8.50000000E-01  8.50000000E-01  8.50000000E-01
  8.50000000E-01  8.50000000E-01  8.50000000E-01  8.50000000E-01  8.50000000E-01
  8.50000000E-01  8.50000000E-01  8.50000000E-01  8.50000000E-01  8.50000000E-01
  8.50000000E-01  8.50000000E-01  8.50000000E-01  8.50000000E-01  8.50000000E-01
  8.50000000E-01  8.50000000E-01  8.50000000E-01  8.50000000E-01  8.50000000E-01
  8.50000000E-01  8.50000000E-01  8.50000000E-01  8.50000000E-01  8.50000000E-01
  8.50000000E-01  8.50000000E-01  8.50000000E-01  8.50000000E-01  8.50000000E-01
  8.50000000E-01  8.50000000E-01  8.50000000E-01  8.50000000E-01  8.50000000E-01
  8.50000000E-01  8.50000000E-01  8.50000000E-01  8.50000000E-01  8.50000000E-01
  8.50000000E-01  8.50000000E-01  8.50000000E-01  8.50000000E-01  8.50000000E-01
  8.50000000E-01  8.50000000E-01  8.50000000E-01  8.50000000E-01  8.50000000E-01
  8.50000000E-01  8.50000000E-01  8.50000000E-01  8.50000000E-01  8.50000000E-01
  8.50000000E-01  8.50000000E-01  8.50000000E-01  8.50000000E-01  8.50000000E-01
  8.50000000E-01  8.50000000E-01  8.50000000E-01  8.50000000E-01  8.50000000E-01
  8.50000000E-01  8.50000000E-01  8.50000000E-01  8.50000000E-01  8.50000000E-01
  8.50000000E-01  8.50000000E-01  8.50000000E-01  8.50000000E-01  8.50000000E-01
  8.50000000E-01  8.50000000E-01  8.50000000E-01  8.50000000E-01  8.50000000E-01
  8.50000000E-01  8.50000000E-01  8.50000000E-01  8.50000000E-01  8.50000000E-01
  8.50000000E-01  8.50000000E-01  8.50000000E-01  8.50000000E-01  8.50000000E-01
  8.50000000E-01  8.50000000E-01  8.50000000E-01  8.50000000E-01  8.50000000E-01
  8.50000000E-01  8.50000000E-01  8.50000000E-01  8.50000000E-01  8.50000000E-01
  8.50000000E-01  8.50000000E-01  8.50000000E-01  8.50000000E-01  8.50000000E-01
  8.50000000E-01  8.50000000E-01  8.50000000E-01  8.50000000E-01  8.50000000E-01
  8.50000000E-01  8.50000000E-01  8.50000000E-01  8.50000000E-01  8.50000000E-01
  8.50000000E-01  8.50000000E-01  8.50000000E-01  8.50000000E-01  8.50000000E-01
  8.50000000E-01  8.50000000E-01  8.50000000E-01  8.50000000E-01  8.50000000E-01
  8.50000000E-01  8.50000000E-01  8.50000000E-01  8.50000000E-01  8.50000000E-01
  8.50000000E-01  8.50000000E-01  8.50000000E-01  8.50000000E-01  8.50000000E-01
  8.50000000E-01  8.50000000E-01  8.50000000E-01  8.50000000E-01  8.50000000E-01
  8.50000000E-01  8.50000000E-01  8.50000000E-01  8.50000000E-01  8.50000000E-01
  8.50000000E-01  8.50000000E-01  8.50000000E-01  8.50000000E-01  8.50000000E-01
  8.50000000E-01  8.50000000E-01  8.50000000E-01  8.50000000E-01  8.50000000E-01
  8.50000000E-01  8.50000000E-01  8.50000000E-01  8.50000000E-01  8.50000000E-01
  8.50000000E-01  8.50000000E-01  8.50000000E-01  8.50000000E-01  8.50000000E-01
  8.50000000E-01  8.50000000E-01  8.50000000E-01  8.50000000E-01  8.50000000E-01
  8.50000000E-01  8.50000000E-01  8.50000000E-01  8.50000000E-01  8.50000000E-01
  8.50000000E-01  8.50000000E-01  8.50000000E-01  8.50000000E-01  8.50000000E-01
  8.50000000E-01  8.50000000E-01  8.50000000E-01  8.50000000E-01  8.50000000E-01
  8.50000000E-01  8.50000000E-01  8.50000000E-01  8.50000000E-01  8.50000000E-01
  8.50000000E-01  8.50000000E-01  8.50000000E-01  8.50000000E-01  8.50000000E-01
  8.50000000E-01  8.50000000E-01  8.50000000E-01  8.50000000E-01  8.50000000E-01
  8.50000000E-01  8.50000000E-01  8.50000000E-01  8.50000000E-01  8.50000000E-01
  8.50000000E-01  8.50000000E-01  8.50000000E-01  8.50000000E-01  8.50000000E-01
  8.50000000E-01  8.50000000E-01  8.50000000E-01  8.50000000E-01  8.50000000E-01
  8.50000000E-01  8.50000000E-01  8.50000000E-01  8.50000000E-01  8.50000000E-01
  8.50000000E-01  8.50000000E-01  8.50000000E-01  8.50000000E-01  8.50000000E-01
  8.50000000E-01  8.50000000E-01  8.50000000E-01  8.50000000E-01  8.50000000E-01
  8.50000000E-01  8.50000000E-01  8.50000000E-01  8.50000000E-01  8.50000000E-01
  8.50000000E-01  8.50000000E-01  8.50000000E-01  8.50000000E-01  8.50000000E-01
  8.50000000E-01  8.50000000E-01  8.50000000E-01  8.50000000E-01  8.50000000E-01
  8.50000000E-01  8.50000000E-01  8.50000000E-01  8.50000000E-01  8.50000000E-01
  8.50000000E-01  8.50000000E-01  8.50000000E-01  8.50000000E-01  8.50000000E-01
  8.50000000E-01  8.50000000E-01  8.50000000E-01  8.50000000E-01  8.50000000E-01
  8.50000000E-01  8.50000000E-01  8.50000000E-01  8.50000000E-01  8.50000000E-01
  8.50000000E-01  8.50000000E-01  8.50000000E-01  8.50000000E-01  8.50000000E-01
  8.50000000E-01  8.50000000E-01  8.50000000E-01  8.50000000E-01  8.50000000E-01
  8.50000000E-01  8.50000000E-01  8.50000000E-01  8.50000000E-01  8.50000000E-01
  8.50000000E-01  8.50000000E-01  8.50000000E-01  8.50000000E-01  8.50000000E-01
  8.50000000E-01  8.50000000E-01  8.50000000E-01  8.50000000E-01  8.50000000E-01
  8.50000000E-01  8.50000000E-01  8.50000000E-01  8.50000000E-01  8.50000000E-01
  8.50000000E-01  8.50000000E-01  8.50000000E-01  8.50000000E-01  8.50000000E-01
  8.50000000E-01  8.50000000E-01  8.50000000E-01  8.50000000E-01  8.50000000E-01
  8.50000000E-01  8.50000000E-01  8.50000000E-01  8.50000000E-01  8.50000000E-01
  8.50000000E-01  8.50000000E-01  8.50000000E-01  8.50000000E-01  8.50000000E-01
  8.50000000E-01  8.50000000E-01  8.50000000E-01  8.50000000E-01  8.50000000E-01
  8.50000000E-01  8.50000000E-01  8.50000000E-01  8.50000000E-01  8.50000000E-01
  8.50000000E-01  8.50000000E-01  8.50000000E-01  8.50000000E-01  8.50000000E-01
  8.50000000E-01  8.50000000E-01  8.50000000E-01  8.50000000E-01  8.50000000E-01
  8.50000000E-01  8.50000000E-01  8.50000000E-01  8.50000000E-01  8.50000000E-01
  8.50000000E-01  8.50000000E-01  8.50000000E-01  8.50000000E-01  8.50000000E-01
  8.50000000E-01  8.50000000E-01  8.50000000E-01  8.50000000E-01  8.50000000E-01
  8.50000000E-01  8.50000000E-01  8.50000000E-01  8.50000000E-01  8.50000000E-01
  8.50000000E-01  8.50000000E-01  8.50000000E-01  8.50000000E-01  8.50000000E-01
  8.50000000E-01  8.50000000E-01  8.50000000E-01  8.50000000E-01  8.50000000E-01
  8.50000000E-01  8.50000000E-01  8.50000000E-01  8.50000000E-01  8.50000000E-01
  8.50000000E-01  8.50000000E-01  8.50000000E-01  8.50000000E-01  8.50000000E-01
  8.50000000E-01  8.50000000E-01  8.50000000E-01  8.50000000E-01  8.50000000E-01
  8.50000000E-01  8.50000000E-01  8.50000000E-01  8.50000000E-01  8.50000000E-01
  8.50000000E-01  8.50000000E-01  8.50000000E-01  8.50000000E-01  8.50000000E-01
  8.50000000E-01  8.50000000E-01  8.50000000E-01  8.50000000E-01  8.50000000E-01
  8.50000000E-01  8.50000000E-01  8.50000000E-01  8.50000000E-01  8.50000000E-01
  8.50000000E-01  8.50000000E-01  8.50000000E-01  8.50000000E-01  8.50000000E-01
  8.50000000E-01  8.50000000E-01  8.50000000E-01  8.50000000E-01  8.50000000E-01
  8.50000000E-01  8.50000000E-01  8.50000000E-01  8.50000000E-01  8.50000000E-01
  8.50000000E-01  8.50000000E-01  8.50000000E-01  8.50000000E-01  8.50000000E-01
  8.50000000E-01  8.50000000E-01  8.50000000E-01  8.50000000E-01  8.50000000E-01
  8.50000000E-01  8.50000000E-01  8.50000000E-01  8.50000000E-01  8.50000000E-01
  8.50000000E-01  8.50000000E-01  8.50000000E-01  8.50000000E-01  8.50000000E-01
  8.50000000E-01  8.50000000E-01  8.50000000E-01  8.50000000E-01  8.50000000E-01
  8.50000000E-01  8.50000000E-01  8.50000000E-01  8.50000000E-01  8.50000000E-01
  8.50000000E-01  8.50000000E-01  8.50000000E-01  8.50000000E-01  8.50000000E-01
  8.50000000E-01  8.50000000E-01  8.50000000E-01  8.50000000E-01  8.50000000E-01
  8.50000000E-01  8.50000000E-01  8.50000000E-01  8.50000000E-01  8.50000000E-01
  8.50000000E-01  8.50000000E-01  8.50000000E-01  8.50000000E-01  8.50000000E-01
  8.50000000E-01  8.50000000E-01  8.50000000E-01  8.50000000E-01  8.50000000E-01
  8.50000000E-01  8.50000000E-01  8.50000000E-01  8.50000000E-01  8.50000000E-01
  8.50000000E-01  8.50000000E-01  8.50000000E-01  8.50000000E-01  8.50000000E-01
  8.50000000E-01  8.50000000E-01  8.50000000E-01  8.50000000E-01  8.50000000E-01
  8.50000000E-01  8.50000000E-01  8.50000000E-01  8.50000000E-01  8.50000000E-01
  8.50000000E-01  8.50000000E-01  8.50000000E-01  8.50000000E-01  8.50000000E-01
  8.50000000E-01  8.50000000E-01  8.50000000E-01  8.50000000E-01  8.50000000E-01
  8.50000000E-01  8.50000000E-01  8.50000000E-01  8.50000000E-01  8.50000000E-01
  8.50000000E-01  8.50000000E-01  8.50000000E-01  8.50000000E-01  8.50000000E-01
  8.50000000E-01  8.50000000E-01  8.50000000E-01  8.50000000E-01  8.50000000E-01
  8.50000000E-01  8.50000000E-01  8.50000000E-01  8.50000000E-01  8.50000000E-01
  8.50000000E-01  8.50000000E-01  8.50000000E-01  8.50000000E-01  8.50000000E-01
  8.50000000E-01  8.50000000E-01  8.50000000E-01  8.50000000E-01  8.50000000E-01
  8.50000000E-01  8.50000000E-01  8.50000000E-01  8.50000000E-01  8.50000000E-01
  8.50000000E-01  8.50000000E-01  8.50000000E-01  8.50000000E-01  8.50000000E-01
  8.50000000E-01  8.50000000E-01  8.50000000E-01  8.50000000E-01  8.50000000E-01
  8.50000000E-01  8.50000000E-01  8.50000000E-01  8.50000000E-01  8.50000000E-01
  8.50000000E-01  8.50000000E-01  8.50000000E-01  8.50000000E-01  8.50000000E-01
  8.50000000E-01  8.50000000E-01  8.50000000E-01  8.50000000E-01  8.50000000E-01
  8.50000000E-01  8.50000000E-01  8.50000000E-01  8.50000000E-01  8.50000000E-01
  8.50000000E-01  8.50000000E-01  8.50000000E-01  8.50000000E-01  8.50000000E-01
  8.50000000E-01  8.50000000E-01  8.50000000E-01  8.50000000E-01  8.50000000E-01
  8.50000000E-01  8.50000000E-01  8.50000000E-01  8.50000000E-01  8.50000000E-01
  8.50000000E-01  8.50000000E-01  8.50000000E-01  8.50000000E-01  8.50000000E-01
  8.50000000E-01  8.50000000E-01  8.50000000E-01  8.50000000E-01  8.50000000E-01
  8.50000000E-01  8.50000000E-01  8.50000000E-01  8.50000000E-01  8.50000000E-01
  8.50000000E-01  8.50000000E-01  8.50000000E-01  8.50000000E-01  8.50000000E-01
  8.50000000E-01  8.50000000E-01  8.50000000E-01  8.50000000E-01  8.50000000E-01
  8.50000000E-01  8.50000000E-01  8.50000000E-01  8.50000000E-01  8.50000000E-01
  8.50000000E-01  8.50000000E-01  8.50000000E-01  8.50000000E-01  8.50000000E-01
  8.50000000E-01  8.50000000E-01  8.50000000E-01  8.50000000E-01  8.50000000E-01
  8.50000000E-01  8.50000000E-01  8.50000000E-01  8.50000000E-01  8.50000000E-01
  8.50000000E-01  8.50000000E-01  8.50000000E-01  8.50000000E-01  8.50000000E-01
  8.50000000E-01  8.50000000E-01  8.50000000E-01  8.50000000E-01  8.50000000E-01
  8.50000000E-01  8.50000000E-01  8.50000000E-01  8.50000000E-01  8.50000000E-01
  8.50000000E-01  8.50000000E-01  8.50000000E-01  8.50000000E-01  8.50000000E-01
  8.50000000E-01  8.50000000E-01  8.50000000E-01  8.50000000E-01  8.50000000E-01
  8.50000000E-01  8.50000000E-01  8.50000000E-01  8.50000000E-01  8.50000000E-01
  8.50000000E-01  8.50000000E-01  8.50000000E-01  8.50000000E-01  8.50000000E-01
  8.50000000E-01  8.50000000E-01  8.50000000E-01  8.50000000E-01  8.50000000E-01
  8.50000000E-01  8.50000000E-01  8.50000000E-01  8.50000000E-01  8.50000000E-01
  8.50000000E-01  8.50000000E-01  8.50000000E-01  8.50000000E-01  8.50000000E-01
  8.50000000E-01  8.50000000E-01  8.50000000E-01  8.50000000E-01  8.50000000E-01
  8.50000000E-01  8.50000000E-01  8.50000000E-01  8.50000000E-01  8.50000000E-01
  8.50000000E-01  8.50000000E-01  8.50000000E-01  8.50000000E-01  8.50000000E-01
  8.50000000E-01  8.50000000E-01  8.50000000E-01  8.50000000E-01  8.50000000E-01
  8.50000000E-01  8.50000000E-01  8.50000000E-01  8.50000000E-01  8.50000000E-01
  8.50000000E-01  8.50000000E-01  8.50000000E-01  8.50000000E-01  8.50000000E-01
  8.50000000E-01  8.50000000E-01  8.50000000E-01  8.50000000E-01  8.50000000E-01
  8.50000000E-01  8.50000000E-01  8.50000000E-01  8.50000000E-01  8.50000000E-01
  8.50000000E-01  8.50000000E-01  8.50000000E-01  8.50000000E-01  8.50000000E-01
  8.50000000E-01  8.50000000E-01  8.50000000E-01  8.50000000E-01  8.50000000E-01
  8.50000000E-01  8.50000000E-01  8.50000000E-01  8.50000000E-01  8.50000000E-01
  8.50000000E-01  8.50000000E-01  8.50000000E-01  8.50000000E-01  8.50000000E-01
  8.50000000E-01  8.50000000E-01  8.50000000E-01  8.50000000E-01  8.50000000E-01
  8.50000000E-01  8.50000000E-01  8.50000000E-01  8.50000000E-01  8.50000000E-01
  8.50000000E-01  8.50000000E-01  8.50000000E-01  8.50000000E-01  8.50000000E-01
  8.50000000E-01  8.50000000E-01  8.50000000E-01  8.50000000E-01  8.50000000E-01
  8.50000000E-01  8.50000000E-01  8.50000000E-01  8.50000000E-01  8.50000000E-01
  8.50000000E-01  8.50000000E-01  8.50000000E-01  8.50000000E-01  8.50000000E-01
  8.50000000E-01  8.50000000E-01  8.50000000E-01  8.50000000E-01  8.50000000E-01
  8.50000000E-01  8.50000000E-01  8.50000000E-01  8.50000000E-01  8.50000000E-01
  8.50000000E-01  8.50000000E-01  8.50000000E-01  8.50000000E-01  8.50000000E-01
  8.50000000E-01  8.50000000E-01  8.50000000E-01  8.50000000E-01  8.50000000E-01
  8.50000000E-01  8.50000000E-01  8.50000000E-01  8.50000000E-01  8.50000000E-01
  8.50000000E-01  8.50000000E-01  8.50000000E-01  8.50000000E-01  8.50000000E-01
  8.50000000E-01  8.50000000E-01  8.50000000E-01  8.50000000E-01  8.50000000E-01
  8.50000000E-01  8.50000000E-01  8.50000000E-01  8.50000000E-01  8.50000000E-01
  8.50000000E-01  8.50000000E-01  8.50000000E-01  8.50000000E-01  8.50000000E-01
  8.50000000E-01  8.50000000E-01  8.50000000E-01  8.50000000E-01  8.50000000E-01
  8.50000000E-01  8.50000000E-01  8.50000000E-01  8.50000000E-01  8.50000000E-01
  8.50000000E-01  8.50000000E-01  8.50000000E-01  8.50000000E-01  8.50000000E-01
  8.50000000E-01  8.50000000E-01  8.50000000E-01  8.50000000E-01  8.50000000E-01
  8.50000000E-01  8.50000000E-01  8.50000000E-01  8.50000000E-01  8.50000000E-01
  8.50000000E-01  8.50000000E-01  8.50000000E-01  8.50000000E-01  8.50000000E-01
  8.50000000E-01  8.50000000E-01  8.50000000E-01  8.50000000E-01  8.50000000E-01
  8.50000000E-01  8.50000000E-01  8.50000000E-01  8.50000000E-01  8.50000000E-01
  8.50000000E-01  8.50000000E-01  8.50000000E-01  8.50000000E-01  8.50000000E-01
  8.50000000E-01  8.50000000E-01  8.50000000E-01  8.50000000E-01  8.50000000E-01
  8.50000000E-01  8.50000000E-01  8.50000000E-01  8.50000000E-01  8.50000000E-01
  8.50000000E-01  8.50000000E-01  8.50000000E-01  8.50000000E-01  8.50000000E-01
  8.50000000E-01  8.50000000E-01  8.50000000E-01  8.50000000E-01  8.50000000E-01
  8.50000000E-01  8.50000000E-01  8.50000000E-01  8.50000000E-01  8.50000000E-01
  8.50000000E-01  8.50000000E-01  8.50000000E-01  8.50000000E-01  8.50000000E-01
  8.50000000E-01  8.50000000E-01  8.50000000E-01  8.50000000E-01  8.50000000E-01
  8.50000000E-01  8.50000000E-01  8.50000000E-01  8.50000000E-01  8.50000000E-01
  8.50000000E-01  8.50000000E-01  8.50000000E-01  8.50000000E-01  8.50000000E-01
  8.50000000E-01  8.50000000E-01  8.50000000E-01  8.50000000E-01  8.50000000E-01
  8.50000000E-01  8.50000000E-01  8.50000000E-01  8.50000000E-01  8.50000000E-01
  8.50000000E-01  8.50000000E-01  8.50000000E-01  8.50000000E-01  8.50000000E-01
  8.50000000E-01  8.50000000E-01  8.50000000E-01  8.50000000E-01  8.50000000E-01
  8.50000000E-01  8.50000000E-01  8.50000000E-01  8.50000000E-01  8.50000000E-01
  8.50000000E-01  8.50000000E-01  8.50000000E-01  8.50000000E-01  8.50000000E-01
  8.50000000E-01  8.50000000E-01  8.50000000E-01  8.50000000E-01  8.50000000E-01
  8.50000000E-01  8.50000000E-01  8.50000000E-01  8.50000000E-01  8.50000000E-01
  8.50000000E-01  8.50000000E-01  8.50000000E-01  8.50000000E-01  8.50000000E-01
  8.50000000E-01  8.50000000E-01  8.50000000E-01  8.50000000E-01  8.50000000E-01
  8.50000000E-01  8.50000000E-01  8.50000000E-01  8.50000000E-01  8.50000000E-01
  8.50000000E-01  8.50000000E-01  8.50000000E-01  8.50000000E-01  8.50000000E-01
  8.50000000E-01  8.50000000E-01  8.50000000E-01  8.50000000E-01  8.50000000E-01
  8.50000000E-01  8.50000000E-01  8.50000000E-01  8.50000000E-01  8.50000000E-01
  8.50000000E-01  8.50000000E-01  8.50000000E-01  8.50000000E-01  8.50000000E-01
  8.50000000E-01  8.50000000E-01  8.50000000E-01  8.50000000E-01  8.50000000E-01
  8.50000000E-01  8.50000000E-01  8.50000000E-01  8.50000000E-01  8.50000000E-01
  8.50000000E-01  8.50000000E-01  8.50000000E-01  8.50000000E-01  8.50000000E-01
  8.50000000E-01  8.50000000E-01  8.50000000E-01  8.50000000E-01  8.50000000E-01
  8.50000000E-01  8.50000000E-01  8.50000000E-01  8.50000000E-01  8.50000000E-01
  8.50000000E-01  8.50000000E-01  8.50000000E-01  8.50000000E-01  8.50000000E-01
  8.50000000E-01  8.50000000E-01  8.50000000E-01  8.50000000E-01  8.50000000E-01
  8.50000000E-01  8.50000000E-01  8.50000000E-01  8.50000000E-01  8.50000000E-01
  8.50000000E-01  8.50000000E-01  8.50000000E-01  8.50000000E-01  8.50000000E-01
  8.50000000E-01  8.50000000E-01  8.50000000E-01  8.50000000E-01  8.50000000E-01
  8.50000000E-01  8.50000000E-01  8.50000000E-01  8.50000000E-01  8.50000000E-01
  8.50000000E-01  8.50000000E-01  8.50000000E-01  8.50000000E-01  8.50000000E-01
  8.50000000E-01  8.50000000E-01  8.50000000E-01  8.50000000E-01  8.50000000E-01
  8.50000000E-01  8.50000000E-01  8.50000000E-01  8.50000000E-01  8.50000000E-01
  8.50000000E-01  8.50000000E-01  8.50000000E-01  8.50000000E-01  8.50000000E-01
  8.50000000E-01  8.50000000E-01  8.50000000E-01  8.50000000E-01  8.50000000E-01
  8.50000000E-01  8.50000000E-01  8.50000000E-01  8.50000000E-01  8.50000000E-01
  8.50000000E-01  8.50000000E-01  8.50000000E-01  8.50000000E-01  8.50000000E-01
  8.50000000E-01  8.50000000E-01  8.50000000E-01  8.50000000E-01  8.50000000E-01
  8.50000000E-01  8.50000000E-01  8.50000000E-01  8.50000000E-01  8.50000000E-01
  8.50000000E-01  8.50000000E-01  8.50000000E-01  8.50000000E-01  8.50000000E-01
  8.50000000E-01  8.50000000E-01  8.50000000E-01  8.50000000E-01  8.50000000E-01
  8.50000000E-01  8.50000000E-01  8.50000000E-01  8.50000000E-01  8.50000000E-01
  8.50000000E-01  8.50000000E-01  8.50000000E-01  8.50000000E-01  8.50000000E-01
  8.50000000E-01  8.50000000E-01  8.50000000E-01  8.50000000E-01  8.50000000E-01
  8.50000000E-01  8.50000000E-01  8.50000000E-01  8.50000000E-01  8.50000000E-01
  8.50000000E-01  8.50000000E-01  8.50000000E-01  8.50000000E-01  8.50000000E-01
  8.50000000E-01  8.50000000E-01  8.50000000E-01  8.50000000E-01  8.50000000E-01
  8.50000000E-01  8.50000000E-01  8.50000000E-01  8.50000000E-01  8.50000000E-01
  8.50000000E-01  8.50000000E-01  8.50000000E-01  8.50000000E-01  8.50000000E-01
  8.50000000E-01  8.50000000E-01  8.50000000E-01  8.50000000E-01  8.50000000E-01
  8.50000000E-01  8.50000000E-01  8.50000000E-01  8.50000000E-01  8.50000000E-01
  8.50000000E-01  8.50000000E-01  8.50000000E-01  8.50000000E-01  8.50000000E-01
  8.50000000E-01  8.50000000E-01  8.50000000E-01  8.50000000E-01  8.50000000E-01
  8.50000000E-01  8.50000000E-01  8.50000000E-01  8.50000000E-01  8.50000000E-01
  8.50000000E-01  8.50000000E-01  8.50000000E-01  8.50000000E-01  8.50000000E-01
  8.50000000E-01  8.50000000E-01  8.50000000E-01  8.50000000E-01  8.50000000E-01
  8.50000000E-01  8.50000000E-01  8.50000000E-01  8.50000000E-01  8.50000000E-01
  8.50000000E-01  8.50000000E-01  8.50000000E-01  8.50000000E-01  8.50000000E-01
  8.50000000E-01  8.50000000E-01  8.50000000E-01  8.50000000E-01  8.50000000E-01
  8.50000000E-01  8.50000000E-01  8.50000000E-01  8.50000000E-01  8.50000000E-01
  8.50000000E-01  8.50000000E-01  8.50000000E-01  8.50000000E-01  8.50000000E-01
  8.50000000E-01  8.50000000E-01  8.50000000E-01  8.50000000E-01  8.50000000E-01
  8.50000000E-01  8.50000000E-01  8.50000000E-01  8.50000000E-01  8.50000000E-01
  8.50000000E-01  8.50000000E-01  8.50000000E-01  8.50000000E-01  8.50000000E-01
  8.50000000E-01  8.50000000E-01  8.50000000E-01  8.50000000E-01  8.50000000E-01
  8.50000000E-01  8.50000000E-01  8.50000000E-01  8.50000000E-01  8.50000000E-01
  8.50000000E-01  8.50000000E-01  8.50000000E-01  8.50000000E-01  8.50000000E-01
  8.50000000E-01  8.50000000E-01  8.50000000E-01  8.50000000E-01  8.50000000E-01
  8.50000000E-01  8.50000000E-01  8.50000000E-01  8.50000000E-01  8.50000000E-01
  8.50000000E-01  8.50000000E-01  8.50000000E-01  8.50000000E-01  8.50000000E-01
  8.50000000E-01  8.50000000E-01  8.50000000E-01  8.50000000E-01  8.50000000E-01
  8.50000000E-01  8.50000000E-01  8.50000000E-01  8.50000000E-01  8.50000000E-01
  8.50000000E-01  8.50000000E-01  8.50000000E-01  8.50000000E-01  8.50000000E-01
  8.50000000E-01  8.50000000E-01  8.50000000E-01  8.50000000E-01  8.50000000E-01
  8.50000000E-01  8.50000000E-01  8.50000000E-01  8.50000000E-01  8.50000000E-01
  8.50000000E-01  8.50000000E-01  8.50000000E-01  8.50000000E-01  8.50000000E-01
  8.50000000E-01  8.50000000E-01  8.50000000E-01  8.50000000E-01  8.50000000E-01
  8.50000000E-01  8.50000000E-01  8.50000000E-01  8.50000000E-01  8.50000000E-01
  8.50000000E-01  8.50000000E-01  8.50000000E-01  8.50000000E-01  8.50000000E-01
  8.50000000E-01  8.50000000E-01  8.50000000E-01  8.50000000E-01  8.50000000E-01
  8.50000000E-01  8.50000000E-01  8.50000000E-01  8.50000000E-01  8.50000000E-01
  8.50000000E-01  8.50000000E-01  8.50000000E-01  8.50000000E-01  8.50000000E-01
  8.50000000E-01  8.50000000E-01  8.50000000E-01  8.50000000E-01  8.50000000E-01
  8.50000000E-01  8.50000000E-01  8.50000000E-01  8.50000000E-01  8.50000000E-01
  8.50000000E-01  8.50000000E-01  8.50000000E-01  8.50000000E-01  8.50000000E-01
  8.50000000E-01  8.50000000E-01  8.50000000E-01  8.50000000E-01  8.50000000E-01
  8.50000000E-01  8.50000000E-01  8.50000000E-01  8.50000000E-01  8.50000000E-01
  8.50000000E-01  8.50000000E-01  8.50000000E-01  8.50000000E-01  8.50000000E-01
  8.50000000E-01  8.50000000E-01  8.50000000E-01  8.50000000E-01  8.50000000E-01
  8.50000000E-01  8.50000000E-01  8.50000000E-01  8.50000000E-01  8.50000000E-01
  8.50000000E-01  8.50000000E-01  8.50000000E-01  8.50000000E-01  8.50000000E-01
  8.50000000E-01  8.50000000E-01  8.50000000E-01  8.50000000E-01  8.50000000E-01
  8.50000000E-01  8.50000000E-01  8.50000000E-01  8.50000000E-01  8.50000000E-01
  8.50000000E-01  8.50000000E-01  8.50000000E-01  8.50000000E-01  8.50000000E-01
  8.50000000E-01  8.50000000E-01  8.50000000E-01  8.50000000E-01  8.50000000E-01
  8.50000000E-01  8.50000000E-01  8.50000000E-01  8.50000000E-01  8.50000000E-01
  8.50000000E-01  8.50000000E-01  8.50000000E-01  8.50000000E-01  8.50000000E-01
  8.50000000E-01  8.50000000E-01  8.50000000E-01  8.50000000E-01  8.50000000E-01
  8.50000000E-01  8.50000000E-01  8.50000000E-01  8.50000000E-01  8.50000000E-01
  8.50000000E-01  8.50000000E-01  8.50000000E-01  8.50000000E-01  8.50000000E-01
  8.50000000E-01  8.50000000E-01  8.50000000E-01  8.50000000E-01  8.50000000E-01
  8.50000000E-01  8.50000000E-01  8.50000000E-01  8.50000000E-01  8.50000000E-01
  8.50000000E-01  8.50000000E-01  8.50000000E-01  8.50000000E-01  8.50000000E-01
  8.50000000E-01  8.50000000E-01  8.50000000E-01  8.50000000E-01  8.50000000E-01
  8.50000000E-01  8.50000000E-01  8.50000000E-01  8.50000000E-01  8.50000000E-01
  8.50000000E-01  8.50000000E-01  8.50000000E-01  8.50000000E-01  8.50000000E-01
  8.50000000E-01  8.50000000E-01  8.50000000E-01  8.50000000E-01  8.50000000E-01
  8.50000000E-01  8.50000000E-01  8.50000000E-01  8.50000000E-01  8.50000000E-01
  8.50000000E-01  8.50000000E-01  8.50000000E-01  8.50000000E-01  8.50000000E-01
  8.50000000E-01  8.50000000E-01  8.50000000E-01  8.50000000E-01  8.50000000E-01
  8.50000000E-01  8.50000000E-01  8.50000000E-01  8.50000000E-01  8.50000000E-01
  8.50000000E-01  8.50000000E-01  8.50000000E-01  8.50000000E-01  8.50000000E-01
  8.50000000E-01  8.50000000E-01  8.50000000E-01  8.50000000E-01  8.50000000E-01
  8.50000000E-01  8.50000000E-01  8.50000000E-01  8.50000000E-01  8.50000000E-01
  8.50000000E-01  8.50000000E-01  8.50000000E-01  8.50000000E-01  8.50000000E-01
  8.50000000E-01  8.50000000E-01  8.50000000E-01  8.50000000E-01  8.50000000E-01
  8.50000000E-01  8.50000000E-01  8.50000000E-01  8.50000000E-01  8.50000000E-01
  8.50000000E-01  8.50000000E-01  8.50000000E-01  8.50000000E-01  8.50000000E-01
  8.50000000E-01  8.50000000E-01  8.50000000E-01  8.50000000E-01  8.50000000E-01
  8.50000000E-01  8.50000000E-01  8.50000000E-01  8.50000000E-01  8.50000000E-01
  8.50000000E-01  8.50000000E-01  8.50000000E-01  8.50000000E-01  8.50000000E-01
  8.50000000E-01  8.50000000E-01  8.50000000E-01  8.50000000E-01  8.50000000E-01
  8.50000000E-01  8.50000000E-01  8.50000000E-01  8.50000000E-01  8.50000000E-01
  8.50000000E-01  8.50000000E-01  8.50000000E-01  8.50000000E-01  8.50000000E-01
  8.50000000E-01  8.50000000E-01  8.50000000E-01  8.50000000E-01  8.50000000E-01
  8.50000000E-01  8.50000000E-01  8.50000000E-01  8.50000000E-01  8.50000000E-01
  8.50000000E-01  8.50000000E-01  8.50000000E-01  8.50000000E-01  8.50000000E-01
  8.50000000E-01  8.50000000E-01  8.50000000E-01  8.50000000E-01  8.50000000E-01
  8.50000000E-01  8.50000000E-01  8.50000000E-01  8.50000000E-01  8.50000000E-01
  8.50000000E-01  8.50000000E-01  8.50000000E-01  8.50000000E-01  8.50000000E-01
  8.50000000E-01  8.50000000E-01  8.50000000E-01  8.50000000E-01  8.50000000E-01
  8.50000000E-01  8.50000000E-01  8.50000000E-01  8.50000000E-01  8.50000000E-01
  8.50000000E-01  8.50000000E-01  8.50000000E-01  8.50000000E-01  8.50000000E-01
  8.50000000E-01  8.50000000E-01  8.50000000E-01  8.50000000E-01  8.50000000E-01
  8.50000000E-01  8.50000000E-01  8.50000000E-01  8.50000000E-01  8.50000000E-01
  8.50000000E-01  8.50000000E-01  8.50000000E-01  8.50000000E-01  8.50000000E-01
  8.50000000E-01  8.50000000E-01  8.50000000E-01  8.50000000E-01  8.50000000E-01
  8.50000000E-01  8.50000000E-01  8.50000000E-01  8.50000000E-01  8.50000000E-01
  8.50000000E-01  8.50000000E-01  8.50000000E-01  8.50000000E-01  8.50000000E-01
  8.50000000E-01  8.50000000E-01  8.50000000E-01  8.50000000E-01  8.50000000E-01
  8.50000000E-01  8.50000000E-01  8.50000000E-01  8.50000000E-01  8.50000000E-01
  8.50000000E-01  8.50000000E-01  8.50000000E-01  8.50000000E-01  8.50000000E-01
  8.50000000E-01  8.50000000E-01  8.50000000E-01  8.50000000E-01  8.50000000E-01
  8.50000000E-01  8.50000000E-01  8.50000000E-01  8.50000000E-01  8.50000000E-01
  8.50000000E-01  8.50000000E-01  8.50000000E-01  8.50000000E-01  8.50000000E-01
  8.50000000E-01  8.50000000E-01  8.50000000E-01  8.50000000E-01  8.50000000E-01
  8.50000000E-01  8.50000000E-01  8.50000000E-01  8.50000000E-01  8.50000000E-01
  8.50000000E-01  8.50000000E-01  8.50000000E-01  8.50000000E-01  8.50000000E-01
  8.50000000E-01  8.50000000E-01  8.50000000E-01  8.50000000E-01  8.50000000E-01
  8.50000000E-01  8.50000000E-01  8.50000000E-01  8.50000000E-01  8.50000000E-01
  8.50000000E-01  8.50000000E-01  8.50000000E-01  8.50000000E-01  8.50000000E-01
  8.50000000E-01  8.50000000E-01  8.50000000E-01  8.50000000E-01  8.50000000E-01
  8.50000000E-01  8.50000000E-01  8.50000000E-01  8.50000000E-01  8.50000000E-01
  8.50000000E-01  8.50000000E-01  8.50000000E-01  8.50000000E-01  8.50000000E-01
  8.50000000E-01  8.50000000E-01  8.50000000E-01  8.50000000E-01  8.50000000E-01
  8.50000000E-01  8.50000000E-01  8.50000000E-01  8.50000000E-01  8.50000000E-01
  8.50000000E-01  8.50000000E-01  8.50000000E-01  8.50000000E-01  8.50000000E-01
  8.50000000E-01  8.50000000E-01  8.50000000E-01  8.50000000E-01  8.50000000E-01
  8.50000000E-01  8.50000000E-01  8.50000000E-01  8.50000000E-01  8.50000000E-01
  8.50000000E-01  8.50000000E-01  8.50000000E-01  8.50000000E-01  8.50000000E-01
  8.50000000E-01  8.50000000E-01  8.50000000E-01  8.50000000E-01  8.50000000E-01
  8.50000000E-01  8.50000000E-01  8.50000000E-01  8.50000000E-01  8.50000000E-01
  8.50000000E-01  8.50000000E-01  8.50000000E-01  8.50000000E-01  8.50000000E-01
  8.50000000E-01  8.50000000E-01  8.50000000E-01  8.50000000E-01  8.50000000E-01
  8.50000000E-01  8.50000000E-01  8.50000000E-01  8.50000000E-01  8.50000000E-01
  8.50000000E-01  8.50000000E-01  8.50000000E-01  8.50000000E-01  8.50000000E-01
  8.50000000E-01  8.50000000E-01  8.50000000E-01  8.50000000E-01  8.50000000E-01
  8.50000000E-01  8.50000000E-01  8.50000000E-01  8.50000000E-01  8.50000000E-01
  8.50000000E-01  8.50000000E-01  8.50000000E-01  8.50000000E-01  8.50000000E-01
  8.50000000E-01  8.50000000E-01  8.50000000E-01  8.50000000E-01  8.50000000E-01
  8.50000000E-01  8.50000000E-01  8.50000000E-01  8.50000000E-01  8.50000000E-01
  8.50000000E-01  8.50000000E-01  8.50000000E-01  8.50000000E-01  8.50000000E-01
  8.50000000E-01  8.50000000E-01  8.50000000E-01  8.50000000E-01  8.50000000E-01
  8.50000000E-01  8.50000000E-01  8.50000000E-01  8.50000000E-01  8.50000000E-01
  8.50000000E-01  8.50000000E-01  8.50000000E-01  8.50000000E-01  8.50000000E-01
  8.50000000E-01  8.50000000E-01  8.50000000E-01  8.50000000E-01  8.50000000E-01
  8.50000000E-01  8.50000000E-01  8.50000000E-01  8.50000000E-01  8.50000000E-01
  8.50000000E-01  8.50000000E-01  8.50000000E-01  8.50000000E-01  8.50000000E-01
  8.50000000E-01  8.50000000E-01  8.50000000E-01  8.50000000E-01  8.50000000E-01
  8.50000000E-01  8.50000000E-01  8.50000000E-01  8.50000000E-01  8.50000000E-01
  8.50000000E-01  8.50000000E-01  8.50000000E-01  8.50000000E-01  8.50000000E-01
  8.50000000E-01  8.50000000E-01  8.50000000E-01  8.50000000E-01  8.50000000E-01
  8.50000000E-01  8.50000000E-01  8.50000000E-01  8.50000000E-01  8.50000000E-01
  8.50000000E-01  8.50000000E-01  8.50000000E-01  8.50000000E-01  8.50000000E-01
  8.50000000E-01  8.50000000E-01  8.50000000E-01  8.50000000E-01  8.50000000E-01
  8.50000000E-01  8.50000000E-01  8.50000000E-01  8.50000000E-01  8.50000000E-01
  8.50000000E-01  8.50000000E-01  8.50000000E-01  8.50000000E-01  8.50000000E-01
  8.50000000E-01  8.50000000E-01  8.50000000E-01  8.50000000E-01  8.50000000E-01
  8.50000000E-01  8.50000000E-01  8.50000000E-01  8.50000000E-01  8.50000000E-01
  8.50000000E-01  8.50000000E-01  8.50000000E-01  8.50000000E-01  8.50000000E-01
  8.50000000E-01  8.50000000E-01  8.50000000E-01  8.50000000E-01  8.50000000E-01
  8.50000000E-01  8.50000000E-01  8.50000000E-01  8.50000000E-01  8.50000000E-01
  8.50000000E-01  8.50000000E-01  8.50000000E-01  8.50000000E-01  8.50000000E-01
  8.50000000E-01  8.50000000E-01  8.50000000E-01  8.50000000E-01  8.50000000E-01
  8.50000000E-01  8.50000000E-01  8.50000000E-01  8.50000000E-01  8.50000000E-01
  8.50000000E-01  8.50000000E-01  8.50000000E-01  8.50000000E-01  8.50000000E-01
  8.50000000E-01  8.50000000E-01  8.50000000E-01  8.50000000E-01  8.50000000E-01
  8.50000000E-01  8.50000000E-01  8.50000000E-01  8.50000000E-01  8.50000000E-01
  8.50000000E-01  8.50000000E-01  8.50000000E-01  8.50000000E-01  8.50000000E-01
  8.50000000E-01  8.50000000E-01  8.50000000E-01  8.50000000E-01  8.50000000E-01
  8.50000000E-01  8.50000000E-01  8.50000000E-01  8.50000000E-01  8.50000000E-01
  8.50000000E-01  8.50000000E-01  8.50000000E-01  8.50000000E-01  8.50000000E-01
  8.50000000E-01  8.50000000E-01  8.50000000E-01  8.50000000E-01  8.50000000E-01
  8.50000000E-01  8.50000000E-01  8.50000000E-01  8.50000000E-01  8.50000000E-01
  8.50000000E-01  8.50000000E-01  8.50000000E-01  8.50000000E-01  8.50000000E-01
  8.50000000E-01  8.50000000E-01  8.50000000E-01  8.50000000E-01  8.50000000E-01
  8.50000000E-01  8.50000000E-01  8.50000000E-01  8.50000000E-01  8.50000000E-01
  8.50000000E-01  8.50000000E-01  8.50000000E-01  8.50000000E-01  8.50000000E-01
  8.50000000E-01  8.50000000E-01  8.50000000E-01  8.50000000E-01  8.50000000E-01
  8.50000000E-01  8.50000000E-01  8.50000000E-01  8.50000000E-01  8.50000000E-01
  8.50000000E-01  8.50000000E-01  8.50000000E-01  8.50000000E-01  8.50000000E-01
  8.50000000E-01  8.50000000E-01  8.50000000E-01  8.50000000E-01  8.50000000E-01
  8.50000000E-01  8.50000000E-01  8.50000000E-01  8.50000000E-01  8.50000000E-01
  8.50000000E-01  8.50000000E-01  8.50000000E-01  8.50000000E-01  8.50000000E-01
  8.50000000E-01  8.50000000E-01  8.50000000E-01  8.50000000E-01  8.50000000E-01
  8.50000000E-01  8.50000000E-01  8.50000000E-01  8.50000000E-01  8.50000000E-01
  8.50000000E-01  8.50000000E-01  8.50000000E-01  8.50000000E-01  8.50000000E-01
  8.50000000E-01  8.50000000E-01  8.50000000E-01  8.50000000E-01  8.50000000E-01
  8.50000000E-01  8.50000000E-01  8.50000000E-01  8.50000000E-01  8.50000000E-01
  8.50000000E-01  8.50000000E-01  8.50000000E-01  8.50000000E-01  8.50000000E-01
  8.50000000E-01  8.50000000E-01  8.50000000E-01  8.50000000E-01  8.50000000E-01
  8.50000000E-01  8.50000000E-01  8.50000000E-01  8.50000000E-01  8.50000000E-01
  8.50000000E-01  8.50000000E-01  8.50000000E-01  8.50000000E-01  8.50000000E-01
  8.50000000E-01  8.50000000E-01  8.50000000E-01  8.50000000E-01  8.50000000E-01
  8.50000000E-01  8.50000000E-01  8.50000000E-01  8.50000000E-01  8.50000000E-01
  8.50000000E-01  8.50000000E-01  8.50000000E-01  8.50000000E-01  8.50000000E-01
  8.50000000E-01  8.50000000E-01  8.50000000E-01  8.50000000E-01  8.50000000E-01
  8.50000000E-01  8.50000000E-01  8.50000000E-01  8.50000000E-01  8.50000000E-01
  8.50000000E-01  8.50000000E-01  8.50000000E-01  8.50000000E-01  8.50000000E-01
  8.50000000E-01  8.50000000E-01  8.50000000E-01  8.50000000E-01  8.50000000E-01
  8.50000000E-01  8.50000000E-01  8.50000000E-01  8.50000000E-01  8.50000000E-01
  8.50000000E-01  8.50000000E-01  8.50000000E-01  8.50000000E-01  8.50000000E-01
  8.50000000E-01  8.50000000E-01  8.50000000E-01  8.50000000E-01  8.50000000E-01
  8.50000000E-01  8.50000000E-01  8.50000000E-01  8.50000000E-01  8.50000000E-01
  8.50000000E-01  8.50000000E-01  8.50000000E-01  8.50000000E-01  8.50000000E-01
  8.50000000E-01  8.50000000E-01  8.50000000E-01  8.50000000E-01  8.50000000E-01
  8.50000000E-01  8.50000000E-01  8.50000000E-01  8.50000000E-01  8.50000000E-01
  8.50000000E-01  8.50000000E-01  8.50000000E-01  8.50000000E-01  8.50000000E-01
  8.50000000E-01  8.50000000E-01  8.50000000E-01  8.50000000E-01  8.50000000E-01
  8.50000000E-01  8.50000000E-01  8.50000000E-01  8.50000000E-01  8.50000000E-01
  8.50000000E-01  8.50000000E-01  8.50000000E-01  8.50000000E-01  8.50000000E-01
  8.50000000E-01  8.50000000E-01  8.50000000E-01  8.50000000E-01  8.50000000E-01
  8.50000000E-01  8.50000000E-01  8.50000000E-01  8.50000000E-01  8.50000000E-01
  8.50000000E-01  8.50000000E-01  8.50000000E-01  8.50000000E-01  8.50000000E-01
  8.50000000E-01  8.50000000E-01  8.50000000E-01  8.50000000E-01  8.50000000E-01
  8.50000000E-01  8.50000000E-01  8.50000000E-01  8.50000000E-01  8.50000000E-01
  8.50000000E-01  8.50000000E-01  8.50000000E-01  8.50000000E-01  8.50000000E-01
  8.50000000E-01  8.50000000E-01  8.50000000E-01  8.50000000E-01  8.50000000E-01
  8.50000000E-01  8.50000000E-01  8.50000000E-01  8.50000000E-01  8.50000000E-01
  8.50000000E-01  8.50000000E-01  8.50000000E-01  8.50000000E-01  8.50000000E-01
  8.50000000E-01  8.50000000E-01  8.50000000E-01  8.50000000E-01  8.50000000E-01
  8.50000000E-01  8.50000000E-01  8.50000000E-01  8.50000000E-01  8.50000000E-01
  8.50000000E-01  8.50000000E-01  8.50000000E-01  8.50000000E-01  8.50000000E-01
  8.50000000E-01  8.50000000E-01  8.50000000E-01  8.50000000E-01  8.50000000E-01
  8.50000000E-01  8.50000000E-01  8.50000000E-01  8.50000000E-01  8.50000000E-01
  8.50000000E-01  8.50000000E-01  8.50000000E-01  8.50000000E-01  8.50000000E-01
  8.50000000E-01  8.50000000E-01  8.50000000E-01  8.50000000E-01  8.50000000E-01
  8.50000000E-01  8.50000000E-01  8.50000000E-01  8.50000000E-01  8.50000000E-01
  8.50000000E-01  8.50000000E-01  8.50000000E-01  8.50000000E-01  8.50000000E-01
  8.50000000E-01  8.50000000E-01  8.50000000E-01  8.50000000E-01  8.50000000E-01
  8.50000000E-01  8.50000000E-01  8.50000000E-01  8.50000000E-01  8.50000000E-01
  8.50000000E-01  8.50000000E-01  8.50000000E-01  8.50000000E-01  8.50000000E-01
  8.50000000E-01  8.50000000E-01  8.50000000E-01  8.50000000E-01  8.50000000E-01
  8.50000000E-01  8.50000000E-01  8.50000000E-01  8.50000000E-01  8.50000000E-01
  8.50000000E-01  8.50000000E-01  8.50000000E-01  8.50000000E-01  8.50000000E-01
  8.50000000E-01  8.50000000E-01  8.50000000E-01  8.50000000E-01  8.50000000E-01
  8.50000000E-01  8.50000000E-01  8.50000000E-01  8.50000000E-01  8.50000000E-01
  8.50000000E-01  8.50000000E-01  8.50000000E-01  8.50000000E-01  8.50000000E-01
  8.50000000E-01  8.50000000E-01  8.50000000E-01  8.50000000E-01  8.50000000E-01
  8.50000000E-01  8.50000000E-01  8.50000000E-01  8.50000000E-01  8.50000000E-01
  8.50000000E-01  8.50000000E-01  8.50000000E-01  8.50000000E-01  8.50000000E-01
  8.50000000E-01  8.50000000E-01  8.50000000E-01  8.50000000E-01  8.50000000E-01
  8.50000000E-01  8.50000000E-01  8.50000000E-01  8.50000000E-01  8.50000000E-01
  8.50000000E-01  8.50000000E-01  8.50000000E-01  8.50000000E-01  8.50000000E-01
  8.50000000E-01  8.50000000E-01  8.50000000E-01  8.50000000E-01  8.50000000E-01
  8.50000000E-01  8.50000000E-01  8.50000000E-01  8.50000000E-01  8.50000000E-01
  8.50000000E-01  8.50000000E-01  8.50000000E-01  8.50000000E-01  8.50000000E-01
  8.50000000E-01  8.50000000E-01  8.50000000E-01  8.50000000E-01  8.50000000E-01
  8.50000000E-01  8.50000000E-01  8.50000000E-01  8.50000000E-01  8.50000000E-01
  8.50000000E-01  8.50000000E-01  8.50000000E-01  8.50000000E-01  8.50000000E-01
  8.50000000E-01  8.50000000E-01  8.50000000E-01  8.50000000E-01  8.50000000E-01
  8.50000000E-01  8.50000000E-01  8.50000000E-01  8.50000000E-01  8.50000000E-01
  8.50000000E-01  8.50000000E-01  8.50000000E-01  8.50000000E-01  8.50000000E-01
  8.50000000E-01  8.50000000E-01  8.50000000E-01  8.50000000E-01  8.50000000E-01
  8.50000000E-01  8.50000000E-01  8.50000000E-01  8.50000000E-01  8.50000000E-01
  8.50000000E-01  8.50000000E-01  8.50000000E-01  8.50000000E-01  8.50000000E-01
  8.50000000E-01  8.50000000E-01  8.50000000E-01  8.50000000E-01  8.50000000E-01
  8.50000000E-01  8.50000000E-01  8.50000000E-01  8.50000000E-01  8.50000000E-01
  8.50000000E-01  8.50000000E-01  8.50000000E-01  8.50000000E-01  8.50000000E-01
  8.50000000E-01  8.50000000E-01  8.50000000E-01  8.50000000E-01  8.50000000E-01
  8.50000000E-01  8.50000000E-01  8.50000000E-01  8.50000000E-01  8.50000000E-01
  8.50000000E-01  8.50000000E-01  8.50000000E-01  8.50000000E-01  8.50000000E-01
  8.50000000E-01  8.50000000E-01  8.50000000E-01  8.50000000E-01  8.50000000E-01
  8.50000000E-01  8.50000000E-01  8.50000000E-01  8.50000000E-01  8.50000000E-01
  8.50000000E-01  8.50000000E-01  8.50000000E-01  8.50000000E-01  8.50000000E-01
  8.50000000E-01  8.50000000E-01  8.50000000E-01  8.50000000E-01  8.50000000E-01
  8.50000000E-01  8.50000000E-01  8.50000000E-01  8.50000000E-01  8.50000000E-01
  8.50000000E-01  8.50000000E-01  8.50000000E-01  8.50000000E-01  8.50000000E-01
  8.50000000E-01  8.50000000E-01  8.50000000E-01  8.50000000E-01  8.50000000E-01
  8.50000000E-01  8.50000000E-01  8.50000000E-01  8.50000000E-01  8.50000000E-01
  8.50000000E-01  8.50000000E-01  8.50000000E-01  8.50000000E-01  8.50000000E-01
  8.50000000E-01  8.50000000E-01  8.50000000E-01  8.50000000E-01  8.50000000E-01
  8.50000000E-01  8.50000000E-01  8.50000000E-01  8.50000000E-01  8.50000000E-01
  8.50000000E-01  8.50000000E-01  8.50000000E-01  8.50000000E-01  8.50000000E-01
  8.50000000E-01  8.50000000E-01  8.50000000E-01  8.50000000E-01  8.50000000E-01
  8.50000000E-01  8.50000000E-01  8.50000000E-01  8.50000000E-01  8.50000000E-01
  8.50000000E-01  8.50000000E-01  8.50000000E-01  8.50000000E-01  8.50000000E-01
  8.50000000E-01  8.50000000E-01  8.50000000E-01  8.50000000E-01  8.50000000E-01
  8.50000000E-01  8.50000000E-01  8.50000000E-01  8.50000000E-01  8.50000000E-01
  8.50000000E-01  8.50000000E-01  8.50000000E-01  8.50000000E-01  8.50000000E-01
  8.50000000E-01  8.50000000E-01  8.50000000E-01  8.50000000E-01  8.50000000E-01
  8.50000000E-01  8.50000000E-01  8.50000000E-01  8.50000000E-01  8.50000000E-01
  8.50000000E-01  8.50000000E-01  8.50000000E-01  8.50000000E-01  8.50000000E-01
  8.50000000E-01  8.50000000E-01  8.50000000E-01  8.50000000E-01  8.50000000E-01
  8.50000000E-01  8.50000000E-01  8.50000000E-01  8.50000000E-01  8.50000000E-01
  8.50000000E-01  8.50000000E-01  8.50000000E-01  8.50000000E-01  8.50000000E-01
  8.50000000E-01  8.50000000E-01  8.50000000E-01  8.50000000E-01  8.50000000E-01
  8.50000000E-01  8.50000000E-01  8.50000000E-01  8.50000000E-01  8.50000000E-01
  8.50000000E-01  8.50000000E-01  8.50000000E-01  8.50000000E-01  8.50000000E-01
  8.50000000E-01  8.50000000E-01  8.50000000E-01  8.50000000E-01  8.50000000E-01
  8.50000000E-01  8.50000000E-01  8.50000000E-01  8.50000000E-01  8.50000000E-01
  8.50000000E-01  8.50000000E-01  8.50000000E-01  8.50000000E-01  8.50000000E-01
  8.50000000E-01  8.50000000E-01  8.50000000E-01  8.50000000E-01  8.50000000E-01
  8.50000000E-01  8.50000000E-01  8.50000000E-01  8.50000000E-01  8.50000000E-01
  8.50000000E-01  8.50000000E-01  8.50000000E-01  8.50000000E-01  8.50000000E-01
  8.50000000E-01  8.50000000E-01  8.50000000E-01  8.50000000E-01  8.50000000E-01
  8.50000000E-01  8.50000000E-01  8.50000000E-01  8.50000000E-01  8.50000000E-01
  8.50000000E-01  8.50000000E-01  8.50000000E-01  8.50000000E-01  8.50000000E-01
  8.50000000E-01  8.50000000E-01  8.50000000E-01  8.50000000E-01  8.50000000E-01
  8.50000000E-01  8.50000000E-01  8.50000000E-01  8.50000000E-01  8.50000000E-01
  8.50000000E-01  8.50000000E-01  8.50000000E-01  8.50000000E-01  8.50000000E-01
  8.50000000E-01  8.50000000E-01  8.50000000E-01  8.50000000E-01  8.50000000E-01
  8.50000000E-01  8.50000000E-01  8.50000000E-01  8.50000000E-01  8.50000000E-01
  8.50000000E-01  8.50000000E-01  8.50000000E-01  8.50000000E-01  8.50000000E-01
  8.50000000E-01  8.50000000E-01  8.50000000E-01  8.50000000E-01  8.50000000E-01
  8.50000000E-01  8.50000000E-01  8.50000000E-01  8.50000000E-01  8.50000000E-01
  8.50000000E-01  8.50000000E-01  8.50000000E-01  8.50000000E-01  8.50000000E-01
  8.50000000E-01  8.50000000E-01  8.50000000E-01  8.50000000E-01  8.50000000E-01
  8.50000000E-01  8.50000000E-01  8.50000000E-01  8.50000000E-01  8.50000000E-01
  8.50000000E-01  8.50000000E-01  8.50000000E-01  8.50000000E-01  8.50000000E-01
  8.50000000E-01  8.50000000E-01  8.50000000E-01  8.50000000E-01  8.50000000E-01
  8.50000000E-01  8.50000000E-01  8.50000000E-01  8.50000000E-01  8.50000000E-01
  8.50000000E-01  8.50000000E-01  8.50000000E-01  8.50000000E-01  8.50000000E-01
  8.50000000E-01  8.50000000E-01  8.50000000E-01  8.50000000E-01  8.50000000E-01
  8.50000000E-01  8.50000000E-01  8.50000000E-01  8.50000000E-01  8.50000000E-01
  8.50000000E-01  8.50000000E-01  8.50000000E-01  8.50000000E-01  8.50000000E-01
  8.50000000E-01  8.50000000E-01  8.50000000E-01  8.50000000E-01  8.50000000E-01
  8.50000000E-01  8.50000000E-01  8.50000000E-01  8.50000000E-01  8.50000000E-01
  8.50000000E-01  8.50000000E-01  8.50000000E-01  8.50000000E-01  8.50000000E-01
  8.50000000E-01  8.50000000E-01  8.50000000E-01  8.50000000E-01  8.50000000E-01
  8.50000000E-01  8.50000000E-01  8.50000000E-01  8.50000000E-01  8.50000000E-01
  8.50000000E-01  8.50000000E-01  8.50000000E-01  8.50000000E-01  8.50000000E-01
  8.50000000E-01  8.50000000E-01  8.50000000E-01  8.50000000E-01  8.50000000E-01
  8.50000000E-01  8.50000000E-01  8.50000000E-01  8.50000000E-01  8.50000000E-01
  8.50000000E-01  8.50000000E-01  8.50000000E-01  8.50000000E-01  8.50000000E-01
  8.50000000E-01  8.50000000E-01  8.50000000E-01  8.50000000E-01  8.50000000E-01
  8.50000000E-01  8.50000000E-01  8.50000000E-01  8.50000000E-01  8.50000000E-01
  8.50000000E-01  8.50000000E-01  8.50000000E-01  8.50000000E-01  8.50000000E-01
  8.50000000E-01  8.50000000E-01  8.50000000E-01  8.50000000E-01  8.50000000E-01
  8.50000000E-01  8.50000000E-01  8.50000000E-01  8.50000000E-01  8.50000000E-01
  8.50000000E-01  8.50000000E-01  8.50000000E-01  8.50000000E-01  8.50000000E-01
  8.50000000E-01  8.50000000E-01  8.50000000E-01  8.50000000E-01  8.50000000E-01
  8.50000000E-01  8.50000000E-01  8.50000000E-01  8.50000000E-01  8.50000000E-01
  8.50000000E-01  8.50000000E-01  8.50000000E-01  8.50000000E-01  8.50000000E-01
  8.50000000E-01  8.50000000E-01  8.50000000E-01  8.50000000E-01  8.50000000E-01
  8.50000000E-01  8.50000000E-01  8.50000000E-01  8.50000000E-01  8.50000000E-01
  8.50000000E-01  8.50000000E-01  8.50000000E-01  8.50000000E-01  8.50000000E-01
  8.50000000E-01  8.50000000E-01  8.50000000E-01  8.50000000E-01  8.50000000E-01
  8.50000000E-01  8.50000000E-01  8.50000000E-01  8.50000000E-01  8.50000000E-01
  8.50000000E-01  8.50000000E-01  8.50000000E-01  8.50000000E-01  8.50000000E-01
  8.50000000E-01  8.50000000E-01  8.50000000E-01  8.50000000E-01  8.50000000E-01
  8.50000000E-01  8.50000000E-01  8.50000000E-01  8.50000000E-01  8.50000000E-01
  8.50000000E-01  8.50000000E-01  8.50000000E-01  8.50000000E-01  8.50000000E-01
  8.50000000E-01  8.50000000E-01  8.50000000E-01  8.50000000E-01  8.50000000E-01
  8.50000000E-01  8.50000000E-01  8.50000000E-01  8.50000000E-01  8.50000000E-01
  8.50000000E-01  8.50000000E-01  8.50000000E-01  8.50000000E-01  8.50000000E-01
  8.50000000E-01  8.50000000E-01  8.50000000E-01  8.50000000E-01  8.50000000E-01
  8.50000000E-01  8.50000000E-01  8.50000000E-01  8.50000000E-01  8.50000000E-01
  8.50000000E-01  8.50000000E-01  8.50000000E-01  8.50000000E-01  8.50000000E-01
  8.50000000E-01  8.50000000E-01  8.50000000E-01  8.50000000E-01  8.50000000E-01
  8.50000000E-01  8.50000000E-01  8.50000000E-01  8.50000000E-01  8.50000000E-01
  8.50000000E-01  8.50000000E-01  8.50000000E-01  8.50000000E-01  8.50000000E-01
  8.50000000E-01  8.50000000E-01  8.50000000E-01  8.50000000E-01  8.50000000E-01
  8.50000000E-01  8.50000000E-01  8.50000000E-01  8.50000000E-01  8.50000000E-01
  8.50000000E-01  8.50000000E-01  8.50000000E-01  8.50000000E-01  8.50000000E-01
  8.50000000E-01  8.50000000E-01  8.50000000E-01  8.50000000E-01  8.50000000E-01
  8.50000000E-01  8.50000000E-01  8.50000000E-01  8.50000000E-01  8.50000000E-01
  8.50000000E-01  8.50000000E-01  8.50000000E-01  8.50000000E-01  8.50000000E-01
  8.50000000E-01  8.50000000E-01  8.50000000E-01  8.50000000E-01  8.50000000E-01
  8.50000000E-01  8.50000000E-01  8.50000000E-01  8.50000000E-01  8.50000000E-01
  8.50000000E-01  8.50000000E-01  8.50000000E-01  8.50000000E-01  8.50000000E-01
  8.50000000E-01  8.50000000E-01  8.50000000E-01  8.50000000E-01  8.50000000E-01
  8.50000000E-01  8.50000000E-01  8.50000000E-01  8.50000000E-01  8.50000000E-01
  8.50000000E-01  8.50000000E-01  8.50000000E-01  8.50000000E-01  8.50000000E-01
  8.50000000E-01  8.50000000E-01  8.50000000E-01  8.50000000E-01  8.50000000E-01
  8.50000000E-01  8.50000000E-01  8.50000000E-01  8.50000000E-01  8.50000000E-01
  8.50000000E-01  8.50000000E-01  8.50000000E-01  8.50000000E-01  8.50000000E-01
  8.50000000E-01  8.50000000E-01  8.50000000E-01  8.50000000E-01  8.50000000E-01
  8.50000000E-01  8.50000000E-01  8.50000000E-01  8.50000000E-01  8.50000000E-01
  8.50000000E-01  8.50000000E-01  8.50000000E-01  8.50000000E-01  8.50000000E-01
  8.50000000E-01  8.50000000E-01  8.50000000E-01  8.50000000E-01  8.50000000E-01
  8.50000000E-01  8.50000000E-01  8.50000000E-01  8.50000000E-01  8.50000000E-01
  8.50000000E-01  8.50000000E-01  8.50000000E-01  8.50000000E-01  8.50000000E-01
  8.50000000E-01  8.50000000E-01  8.50000000E-01  8.50000000E-01  8.50000000E-01
  8.50000000E-01  8.50000000E-01  8.50000000E-01  8.50000000E-01  8.50000000E-01
  8.50000000E-01  8.50000000E-01  8.50000000E-01  8.50000000E-01  8.50000000E-01
  8.50000000E-01  8.50000000E-01  8.50000000E-01  8.50000000E-01  8.50000000E-01
  8.50000000E-01  8.50000000E-01  8.50000000E-01  8.50000000E-01  8.50000000E-01
  8.50000000E-01  8.50000000E-01  8.50000000E-01  8.50000000E-01  8.50000000E-01
  8.50000000E-01  8.50000000E-01  8.50000000E-01  8.50000000E-01  8.50000000E-01
  8.50000000E-01  8.50000000E-01  8.50000000E-01  8.50000000E-01  8.50000000E-01
  8.50000000E-01  8.50000000E-01  8.50000000E-01  8.50000000E-01  8.50000000E-01
  8.50000000E-01  8.50000000E-01  8.50000000E-01  8.50000000E-01  8.50000000E-01
  8.50000000E-01  8.50000000E-01  8.50000000E-01  8.50000000E-01  8.50000000E-01
  8.50000000E-01  8.50000000E-01  8.50000000E-01  8.50000000E-01  8.50000000E-01
  8.50000000E-01  8.50000000E-01  8.50000000E-01  8.50000000E-01  8.50000000E-01
  8.50000000E-01  8.50000000E-01  8.50000000E-01  8.50000000E-01  8.50000000E-01
  8.50000000E-01  8.50000000E-01  8.50000000E-01  8.50000000E-01  8.50000000E-01
  8.50000000E-01  8.50000000E-01  8.50000000E-01  8.50000000E-01  8.50000000E-01
  8.50000000E-01  8.50000000E-01  8.50000000E-01  8.50000000E-01  8.50000000E-01
  8.50000000E-01  8.50000000E-01  8.50000000E-01  8.50000000E-01  8.50000000E-01
  8.50000000E-01  8.50000000E-01  8.50000000E-01  8.50000000E-01  8.50000000E-01
  8.50000000E-01  8.50000000E-01  8.50000000E-01  8.50000000E-01  8.50000000E-01
  8.50000000E-01  8.50000000E-01  8.50000000E-01  8.50000000E-01  8.50000000E-01
  8.50000000E-01  8.50000000E-01  8.50000000E-01  8.50000000E-01  8.50000000E-01
  8.50000000E-01  8.50000000E-01  8.50000000E-01  8.50000000E-01  8.50000000E-01
  8.50000000E-01  8.50000000E-01  8.50000000E-01  8.50000000E-01  8.50000000E-01
  8.50000000E-01  8.50000000E-01  8.50000000E-01  8.50000000E-01  8.50000000E-01
  8.50000000E-01  8.50000000E-01  8.50000000E-01  8.50000000E-01  8.50000000E-01
  8.50000000E-01  8.50000000E-01  8.50000000E-01  8.50000000E-01  8.50000000E-01
  8.50000000E-01  8.50000000E-01  8.50000000E-01  8.50000000E-01  8.50000000E-01
  8.50000000E-01  8.50000000E-01  8.50000000E-01  8.50000000E-01  8.50000000E-01
  8.50000000E-01  8.50000000E-01  8.50000000E-01  8.50000000E-01  8.50000000E-01
  8.50000000E-01  8.50000000E-01  8.50000000E-01  8.50000000E-01  8.50000000E-01
  8.50000000E-01  8.50000000E-01  8.50000000E-01  8.50000000E-01  8.50000000E-01
  8.50000000E-01  8.50000000E-01  8.50000000E-01  8.50000000E-01  8.50000000E-01
  8.50000000E-01  8.50000000E-01  8.50000000E-01  8.50000000E-01  8.50000000E-01
  8.50000000E-01  8.50000000E-01  8.50000000E-01  8.50000000E-01  8.50000000E-01
  8.50000000E-01  8.50000000E-01  8.50000000E-01  8.50000000E-01  8.50000000E-01
  8.50000000E-01  8.50000000E-01  8.50000000E-01  8.50000000E-01  8.50000000E-01
  8.50000000E-01  8.50000000E-01  8.50000000E-01  8.50000000E-01  8.50000000E-01
  8.50000000E-01  8.50000000E-01  8.50000000E-01  8.50000000E-01  8.50000000E-01
  8.50000000E-01  8.50000000E-01  8.50000000E-01  8.50000000E-01  8.50000000E-01
  8.50000000E-01  8.50000000E-01  8.50000000E-01  8.50000000E-01  8.50000000E-01
  8.50000000E-01  8.50000000E-01  8.50000000E-01  8.50000000E-01  8.50000000E-01
  8.50000000E-01  8.50000000E-01  8.50000000E-01  8.50000000E-01  8.50000000E-01
  8.50000000E-01  8.50000000E-01  8.50000000E-01  8.50000000E-01  8.50000000E-01
  8.50000000E-01  8.50000000E-01  8.50000000E-01  8.50000000E-01  8.50000000E-01
  8.50000000E-01  8.50000000E-01  8.50000000E-01  8.50000000E-01  8.50000000E-01
  8.50000000E-01  8.50000000E-01  8.50000000E-01  8.50000000E-01  8.50000000E-01
  8.50000000E-01  8.50000000E-01  8.50000000E-01  8.50000000E-01  8.50000000E-01
  8.50000000E-01  8.50000000E-01  8.50000000E-01  8.50000000E-01  8.50000000E-01
  8.50000000E-01  8.50000000E-01  8.50000000E-01  8.50000000E-01  8.50000000E-01
  8.50000000E-01  8.50000000E-01  8.50000000E-01  8.50000000E-01  8.50000000E-01
  8.50000000E-01  8.50000000E-01  8.50000000E-01  8.50000000E-01  8.50000000E-01
  8.50000000E-01  8.50000000E-01  8.50000000E-01  8.50000000E-01  8.50000000E-01
  8.50000000E-01  8.50000000E-01  8.50000000E-01  8.50000000E-01  8.50000000E-01
  8.50000000E-01  8.50000000E-01  8.50000000E-01  8.50000000E-01  8.50000000E-01
  8.50000000E-01  8.50000000E-01  8.50000000E-01  8.50000000E-01  8.50000000E-01
  8.50000000E-01  8.50000000E-01  8.50000000E-01  8.50000000E-01  8.50000000E-01
  8.50000000E-01  8.50000000E-01  8.50000000E-01  8.50000000E-01  8.50000000E-01
  8.50000000E-01  8.50000000E-01  8.50000000E-01  8.50000000E-01  8.50000000E-01
  8.50000000E-01  8.50000000E-01  8.50000000E-01  8.50000000E-01  8.50000000E-01
  8.50000000E-01  8.50000000E-01  8.50000000E-01  8.50000000E-01  8.50000000E-01
  8.50000000E-01  8.50000000E-01  8.50000000E-01  8.50000000E-01  8.50000000E-01
  8.50000000E-01  8.50000000E-01  8.50000000E-01  8.50000000E-01  8.50000000E-01
  8.50000000E-01  8.50000000E-01  8.50000000E-01  8.50000000E-01  8.50000000E-01
  8.50000000E-01  8.50000000E-01  8.50000000E-01  8.50000000E-01  8.50000000E-01
  8.50000000E-01  8.50000000E-01  8.50000000E-01  8.50000000E-01  8.50000000E-01
  8.50000000E-01  8.50000000E-01  8.50000000E-01  8.50000000E-01  8.50000000E-01
  8.50000000E-01  8.50000000E-01  8.50000000E-01  8.50000000E-01  8.50000000E-01
  8.50000000E-01  8.50000000E-01  8.50000000E-01  8.50000000E-01  8.50000000E-01
  8.50000000E-01  8.50000000E-01  8.50000000E-01  8.50000000E-01  8.50000000E-01
  8.50000000E-01  8.50000000E-01  8.50000000E-01  8.50000000E-01  8.50000000E-01
  8.50000000E-01  8.50000000E-01  8.50000000E-01  8.50000000E-01  8.50000000E-01
  8.50000000E-01  8.50000000E-01  8.50000000E-01  8.50000000E-01  8.50000000E-01
  8.50000000E-01  8.50000000E-01  8.50000000E-01  8.50000000E-01  8.50000000E-01
  8.50000000E-01  8.50000000E-01  8.50000000E-01  8.50000000E-01  8.50000000E-01
  8.50000000E-01  8.50000000E-01  8.50000000E-01  8.50000000E-01  8.50000000E-01
  8.50000000E-01  8.50000000E-01  8.50000000E-01  8.50000000E-01  8.50000000E-01
  8.50000000E-01  8.50000000E-01  8.50000000E-01  8.50000000E-01  8.50000000E-01
  8.50000000E-01  8.50000000E-01  8.50000000E-01  8.50000000E-01  8.50000000E-01
  8.50000000E-01  8.50000000E-01  8.50000000E-01  8.50000000E-01  8.50000000E-01
  8.50000000E-01  8.50000000E-01  8.50000000E-01  8.50000000E-01  8.50000000E-01
  8.50000000E-01  8.50000000E-01  8.50000000E-01  8.50000000E-01  8.50000000E-01
  8.50000000E-01  8.50000000E-01  8.50000000E-01  8.50000000E-01  8.50000000E-01
  8.50000000E-01  8.50000000E-01  8.50000000E-01  8.50000000E-01  8.50000000E-01
  8.50000000E-01  8.50000000E-01  8.50000000E-01  8.50000000E-01  8.50000000E-01
  8.50000000E-01  8.50000000E-01  8.50000000E-01  8.50000000E-01  8.50000000E-01
  8.50000000E-01  8.50000000E-01  8.50000000E-01  8.50000000E-01  8.50000000E-01
  8.50000000E-01  8.50000000E-01  8.50000000E-01  8.50000000E-01  8.50000000E-01
  8.50000000E-01  8.50000000E-01  8.50000000E-01  8.50000000E-01  8.50000000E-01
  8.50000000E-01  8.50000000E-01  8.50000000E-01  8.50000000E-01  8.50000000E-01
  8.50000000E-01  8.50000000E-01  8.50000000E-01  8.50000000E-01  8.50000000E-01
  8.50000000E-01  8.50000000E-01  8.50000000E-01  8.50000000E-01  8.50000000E-01
  8.50000000E-01  8.50000000E-01  8.50000000E-01  8.50000000E-01  8.50000000E-01
  8.50000000E-01  8.50000000E-01  8.50000000E-01  8.50000000E-01  8.50000000E-01
  8.50000000E-01  8.50000000E-01  8.50000000E-01  8.50000000E-01  8.50000000E-01
  8.50000000E-01  8.50000000E-01  8.50000000E-01  8.50000000E-01  8.50000000E-01
  8.50000000E-01  8.50000000E-01  8.50000000E-01  8.50000000E-01  8.50000000E-01
  8.50000000E-01  8.50000000E-01  8.50000000E-01  8.50000000E-01  8.50000000E-01
  8.50000000E-01  8.50000000E-01  8.50000000E-01  8.50000000E-01  8.50000000E-01
  8.50000000E-01  8.50000000E-01  8.50000000E-01  8.50000000E-01  8.50000000E-01
  8.50000000E-01  8.50000000E-01  8.50000000E-01  8.50000000E-01  8.50000000E-01
  8.50000000E-01  8.50000000E-01  8.50000000E-01  8.50000000E-01  8.50000000E-01
  8.50000000E-01  8.50000000E-01  8.50000000E-01  8.50000000E-01  8.50000000E-01
  8.50000000E-01  8.50000000E-01  8.50000000E-01  8.50000000E-01  8.50000000E-01
  8.50000000E-01  8.50000000E-01  8.50000000E-01  8.50000000E-01  8.50000000E-01
  8.50000000E-01  8.50000000E-01  8.50000000E-01  8.50000000E-01  8.50000000E-01
  8.50000000E-01  8.50000000E-01  8.50000000E-01  8.50000000E-01  8.50000000E-01
  8.50000000E-01  8.50000000E-01  8.50000000E-01  8.50000000E-01  8.50000000E-01
  8.50000000E-01  8.50000000E-01  8.50000000E-01  8.50000000E-01  8.50000000E-01
  8.50000000E-01  8.50000000E-01  8.50000000E-01  8.50000000E-01  8.50000000E-01
  8.50000000E-01  8.50000000E-01  8.50000000E-01  8.50000000E-01  8.50000000E-01
  8.50000000E-01  8.50000000E-01  8.50000000E-01  8.50000000E-01  8.50000000E-01
  8.50000000E-01  8.50000000E-01  8.50000000E-01  8.50000000E-01  8.50000000E-01
  8.50000000E-01  8.50000000E-01  8.50000000E-01  8.50000000E-01  8.50000000E-01
  8.50000000E-01  8.50000000E-01  8.50000000E-01  8.50000000E-01  8.50000000E-01
  8.50000000E-01  8.50000000E-01  8.50000000E-01  8.50000000E-01  8.50000000E-01
  8.50000000E-01  8.50000000E-01  8.50000000E-01  8.50000000E-01  8.50000000E-01
  8.50000000E-01  8.50000000E-01  8.50000000E-01  8.50000000E-01  8.50000000E-01
  8.50000000E-01  8.50000000E-01  8.50000000E-01  8.50000000E-01  8.50000000E-01
  8.50000000E-01  8.50000000E-01  8.50000000E-01  8.50000000E-01  8.50000000E-01
  8.50000000E-01  8.50000000E-01  8.50000000E-01  8.50000000E-01  8.50000000E-01
  8.50000000E-01  8.50000000E-01  8.50000000E-01  8.50000000E-01  8.50000000E-01
  8.50000000E-01  8.50000000E-01  8.50000000E-01  8.50000000E-01  8.50000000E-01
  8.50000000E-01  8.50000000E-01  8.50000000E-01  8.50000000E-01  8.50000000E-01
  8.50000000E-01  8.50000000E-01  8.50000000E-01  8.50000000E-01  8.50000000E-01
  8.50000000E-01  8.50000000E-01  8.50000000E-01  8.50000000E-01  8.50000000E-01
  8.50000000E-01  8.50000000E-01  8.50000000E-01  8.50000000E-01  8.50000000E-01
  8.50000000E-01  8.50000000E-01  8.50000000E-01  8.50000000E-01  8.50000000E-01
  8.50000000E-01  8.50000000E-01  8.50000000E-01  8.50000000E-01  8.50000000E-01
  8.50000000E-01  8.50000000E-01  8.50000000E-01  8.50000000E-01  8.50000000E-01
  8.50000000E-01  8.50000000E-01  8.50000000E-01  8.50000000E-01  8.50000000E-01
  8.50000000E-01  8.50000000E-01  8.50000000E-01  8.50000000E-01  8.50000000E-01
  8.50000000E-01  8.50000000E-01  8.50000000E-01  8.50000000E-01  8.50000000E-01
  8.50000000E-01  8.50000000E-01  8.50000000E-01  8.50000000E-01  8.50000000E-01
  8.50000000E-01  8.50000000E-01  8.50000000E-01  8.50000000E-01  8.50000000E-01
  8.50000000E-01  8.50000000E-01  8.50000000E-01  8.50000000E-01  8.50000000E-01
  8.50000000E-01  8.50000000E-01  8.50000000E-01  8.50000000E-01  8.50000000E-01
  8.50000000E-01  8.50000000E-01  8.50000000E-01  8.50000000E-01  8.50000000E-01
  8.50000000E-01  8.50000000E-01  8.50000000E-01  8.50000000E-01  8.50000000E-01
  8.50000000E-01  8.50000000E-01  8.50000000E-01  8.50000000E-01  8.50000000E-01
  8.50000000E-01  8.50000000E-01  8.50000000E-01  8.50000000E-01  8.50000000E-01
  8.50000000E-01  8.50000000E-01  8.50000000E-01  8.50000000E-01  8.50000000E-01
  8.50000000E-01  8.50000000E-01  8.50000000E-01  8.50000000E-01  8.50000000E-01
  8.50000000E-01  8.50000000E-01  8.50000000E-01  8.50000000E-01  8.50000000E-01
  8.50000000E-01  8.50000000E-01  8.50000000E-01  8.50000000E-01  8.50000000E-01
  8.50000000E-01  8.50000000E-01  8.50000000E-01  8.50000000E-01  8.50000000E-01
  8.50000000E-01  8.50000000E-01  8.50000000E-01  8.50000000E-01  8.50000000E-01
  8.50000000E-01  8.50000000E-01  8.50000000E-01  8.50000000E-01  8.50000000E-01
  8.50000000E-01  8.50000000E-01  8.50000000E-01  8.50000000E-01  8.50000000E-01
  8.50000000E-01  8.50000000E-01  8.50000000E-01  8.50000000E-01  8.50000000E-01
  8.50000000E-01  8.50000000E-01  8.50000000E-01  8.50000000E-01  8.50000000E-01
  8.50000000E-01  8.50000000E-01  8.50000000E-01  8.50000000E-01  8.50000000E-01
  8.50000000E-01  8.50000000E-01  8.50000000E-01  8.50000000E-01  8.50000000E-01
  8.50000000E-01  8.50000000E-01  8.50000000E-01  8.50000000E-01  8.50000000E-01
  8.50000000E-01  8.50000000E-01  8.50000000E-01  8.50000000E-01  8.50000000E-01
  8.50000000E-01  8.50000000E-01  8.50000000E-01  8.50000000E-01  8.50000000E-01
  8.50000000E-01  8.50000000E-01  8.50000000E-01  8.50000000E-01  8.50000000E-01
  8.50000000E-01  8.50000000E-01  8.50000000E-01  8.50000000E-01  8.50000000E-01
  8.50000000E-01  8.50000000E-01  8.50000000E-01  8.50000000E-01  8.50000000E-01
  8.50000000E-01  8.50000000E-01  8.50000000E-01  8.50000000E-01  8.50000000E-01
  8.50000000E-01  8.50000000E-01  8.50000000E-01  8.50000000E-01  8.50000000E-01
  8.50000000E-01  8.50000000E-01  8.50000000E-01  8.50000000E-01  8.50000000E-01
  8.50000000E-01  8.50000000E-01  8.50000000E-01  8.50000000E-01  8.50000000E-01
  8.50000000E-01  8.50000000E-01  8.50000000E-01  8.50000000E-01  8.50000000E-01
  8.50000000E-01  8.50000000E-01  8.50000000E-01  8.50000000E-01  8.50000000E-01
  8.50000000E-01  8.50000000E-01  8.50000000E-01  8.50000000E-01  8.50000000E-01
  8.50000000E-01  8.50000000E-01  8.50000000E-01  8.50000000E-01  8.50000000E-01
  8.50000000E-01  8.50000000E-01  8.50000000E-01  8.50000000E-01  8.50000000E-01
  8.50000000E-01  8.50000000E-01  8.50000000E-01  8.50000000E-01  8.50000000E-01
  8.50000000E-01  8.50000000E-01  8.50000000E-01  8.50000000E-01  8.50000000E-01
  8.50000000E-01  8.50000000E-01  8.50000000E-01  8.50000000E-01  8.50000000E-01
  8.50000000E-01  8.50000000E-01  8.50000000E-01  8.50000000E-01  8.50000000E-01
  8.50000000E-01  8.50000000E-01  8.50000000E-01  8.50000000E-01  8.50000000E-01
  8.50000000E-01  8.50000000E-01  8.50000000E-01  8.50000000E-01  8.50000000E-01
  8.50000000E-01  8.50000000E-01  8.50000000E-01  8.50000000E-01  8.50000000E-01
  8.50000000E-01  8.50000000E-01  8.50000000E-01  8.50000000E-01  8.50000000E-01
  8.50000000E-01  8.50000000E-01  8.50000000E-01  8.50000000E-01  8.50000000E-01
  8.50000000E-01  8.50000000E-01  8.50000000E-01  8.50000000E-01  8.50000000E-01
  8.50000000E-01  8.50000000E-01  8.50000000E-01  8.50000000E-01  8.50000000E-01
  8.50000000E-01  8.50000000E-01  8.50000000E-01  8.50000000E-01  8.50000000E-01
  8.50000000E-01  8.50000000E-01  8.50000000E-01  8.50000000E-01  8.50000000E-01
  8.50000000E-01  8.50000000E-01  8.50000000E-01  8.50000000E-01  8.50000000E-01
  8.50000000E-01  8.50000000E-01  8.50000000E-01  8.50000000E-01  8.50000000E-01
  8.50000000E-01  8.50000000E-01  8.50000000E-01  8.50000000E-01  8.50000000E-01
  8.50000000E-01  8.50000000E-01  8.50000000E-01  8.50000000E-01  8.50000000E-01
  8.50000000E-01  8.50000000E-01  8.50000000E-01  8.50000000E-01  8.50000000E-01
  8.50000000E-01  8.50000000E-01  8.50000000E-01  8.50000000E-01  8.50000000E-01
  8.50000000E-01  8.50000000E-01  8.50000000E-01  8.50000000E-01  8.50000000E-01
  8.50000000E-01  8.50000000E-01  8.50000000E-01  8.50000000E-01  8.50000000E-01
  8.50000000E-01  8.50000000E-01  8.50000000E-01  8.50000000E-01  8.50000000E-01
  8.50000000E-01  8.50000000E-01  8.50000000E-01  8.50000000E-01  8.50000000E-01
  8.50000000E-01  8.50000000E-01  8.50000000E-01  8.50000000E-01  8.50000000E-01
  8.50000000E-01  8.50000000E-01  8.50000000E-01  8.50000000E-01  8.50000000E-01
  8.50000000E-01  8.50000000E-01  8.50000000E-01  8.50000000E-01  8.50000000E-01
  8.50000000E-01  8.50000000E-01  8.50000000E-01  8.50000000E-01  8.50000000E-01
  8.50000000E-01  8.50000000E-01  8.50000000E-01  8.50000000E-01  8.50000000E-01
  8.50000000E-01  8.50000000E-01  8.50000000E-01  8.50000000E-01  8.50000000E-01
  8.50000000E-01  8.50000000E-01  8.50000000E-01  8.50000000E-01  8.50000000E-01
  8.50000000E-01  8.50000000E-01  8.50000000E-01  8.50000000E-01  8.50000000E-01
  8.50000000E-01  8.50000000E-01  8.50000000E-01  8.50000000E-01  8.50000000E-01
  8.50000000E-01  8.50000000E-01  8.50000000E-01  8.50000000E-01  8.50000000E-01
  8.50000000E-01  8.50000000E-01  8.50000000E-01  8.50000000E-01  8.50000000E-01
  8.50000000E-01  8.50000000E-01  8.50000000E-01  8.50000000E-01  8.50000000E-01
  8.50000000E-01  8.50000000E-01  8.50000000E-01  8.50000000E-01  8.50000000E-01
  8.50000000E-01  8.50000000E-01  8.50000000E-01  8.50000000E-01  8.50000000E-01
  8.50000000E-01  8.50000000E-01  8.50000000E-01  8.50000000E-01  8.50000000E-01
  8.50000000E-01  8.50000000E-01  8.50000000E-01  8.50000000E-01  8.50000000E-01
  8.50000000E-01  8.50000000E-01  8.50000000E-01  8.50000000E-01  8.50000000E-01
  8.50000000E-01  8.50000000E-01  8.50000000E-01  8.50000000E-01  8.50000000E-01
  8.50000000E-01  8.50000000E-01  8.50000000E-01  8.50000000E-01  8.50000000E-01
  8.50000000E-01  8.50000000E-01  8.50000000E-01  8.50000000E-01  8.50000000E-01
  8.50000000E-01  8.50000000E-01  8.50000000E-01  8.50000000E-01  8.50000000E-01
  8.50000000E-01  8.50000000E-01  8.50000000E-01  8.50000000E-01  8.50000000E-01
  8.50000000E-01  8.50000000E-01  8.50000000E-01  8.50000000E-01  8.50000000E-01
  8.50000000E-01  8.50000000E-01  8.50000000E-01  8.50000000E-01  8.50000000E-01
  8.50000000E-01  8.50000000E-01  8.50000000E-01  8.50000000E-01  8.50000000E-01
  8.50000000E-01  8.50000000E-01  8.50000000E-01  8.50000000E-01  8.50000000E-01
  8.50000000E-01  8.50000000E-01  8.50000000E-01  8.50000000E-01  8.50000000E-01
  8.50000000E-01  8.50000000E-01  8.50000000E-01  8.50000000E-01  8.50000000E-01
  8.50000000E-01  8.50000000E-01  8.50000000E-01  8.50000000E-01  8.50000000E-01
  8.50000000E-01  8.50000000E-01  8.50000000E-01  8.50000000E-01  8.50000000E-01
  8.50000000E-01  8.50000000E-01  8.50000000E-01  8.50000000E-01  8.50000000E-01
  8.50000000E-01  8.50000000E-01  8.50000000E-01  8.50000000E-01  8.50000000E-01
  8.50000000E-01  8.50000000E-01  8.50000000E-01  8.50000000E-01  8.50000000E-01
  8.50000000E-01  8.50000000E-01  8.50000000E-01  8.50000000E-01  8.50000000E-01
  8.50000000E-01  8.50000000E-01  8.50000000E-01  8.50000000E-01  8.50000000E-01
  8.50000000E-01  8.50000000E-01  8.50000000E-01  8.50000000E-01  8.50000000E-01
  8.50000000E-01  8.50000000E-01  8.50000000E-01  8.50000000E-01  8.50000000E-01
  8.50000000E-01  8.50000000E-01  8.50000000E-01  8.50000000E-01  8.50000000E-01
  8.50000000E-01  8.50000000E-01  8.50000000E-01  8.50000000E-01  8.50000000E-01
  8.50000000E-01  8.50000000E-01  8.50000000E-01  8.50000000E-01  8.50000000E-01
  8.50000000E-01  8.50000000E-01  8.50000000E-01  8.50000000E-01  8.50000000E-01
  8.50000000E-01  8.50000000E-01  8.50000000E-01  8.50000000E-01  8.50000000E-01
  8.50000000E-01  8.50000000E-01  8.50000000E-01  8.50000000E-01  8.50000000E-01
  8.50000000E-01  8.50000000E-01  8.50000000E-01  8.50000000E-01  8.50000000E-01
  8.50000000E-01  8.50000000E-01  8.50000000E-01  8.50000000E-01  8.50000000E-01
  8.50000000E-01  8.50000000E-01  8.50000000E-01  8.50000000E-01  8.50000000E-01
  8.50000000E-01  8.50000000E-01  8.50000000E-01  8.50000000E-01  8.50000000E-01
  8.50000000E-01  8.50000000E-01  8.50000000E-01  8.50000000E-01  8.50000000E-01
  8.50000000E-01  8.50000000E-01  8.50000000E-01  8.50000000E-01  8.50000000E-01
  8.50000000E-01  8.50000000E-01  8.50000000E-01  8.50000000E-01  8.50000000E-01
  8.50000000E-01  8.50000000E-01  8.50000000E-01  8.50000000E-01  8.50000000E-01
  8.50000000E-01  8.50000000E-01  8.50000000E-01  8.50000000E-01  8.50000000E-01
  8.50000000E-01  8.50000000E-01  8.50000000E-01  8.50000000E-01  8.50000000E-01
  8.50000000E-01  8.50000000E-01  8.50000000E-01  8.50000000E-01  8.50000000E-01
  8.50000000E-01  8.50000000E-01  8.50000000E-01  8.50000000E-01  8.50000000E-01
  8.50000000E-01  8.50000000E-01  8.50000000E-01  8.50000000E-01  8.50000000E-01
  8.50000000E-01  8.50000000E-01  8.50000000E-01  8.50000000E-01  8.50000000E-01
  8.50000000E-01  8.50000000E-01  8.50000000E-01  8.50000000E-01  8.50000000E-01
  8.50000000E-01  8.50000000E-01  8.50000000E-01  8.50000000E-01  8.50000000E-01
  8.50000000E-01  8.50000000E-01  8.50000000E-01  8.50000000E-01  8.50000000E-01
  8.50000000E-01  8.50000000E-01  8.50000000E-01  8.50000000E-01  8.50000000E-01
  8.50000000E-01  8.50000000E-01  8.50000000E-01  8.50000000E-01  8.50000000E-01
  8.50000000E-01  8.50000000E-01  8.50000000E-01  8.50000000E-01  8.50000000E-01
  8.50000000E-01  8.50000000E-01  8.50000000E-01  8.50000000E-01  8.50000000E-01
  8.50000000E-01  8.50000000E-01  8.50000000E-01  8.50000000E-01  8.50000000E-01
  8.50000000E-01  8.50000000E-01  8.50000000E-01  8.50000000E-01  8.50000000E-01
  8.50000000E-01  8.50000000E-01  8.50000000E-01  8.50000000E-01  8.50000000E-01
  8.50000000E-01  8.50000000E-01  8.50000000E-01  8.50000000E-01  8.50000000E-01
  8.50000000E-01  8.50000000E-01  8.50000000E-01  8.50000000E-01  8.50000000E-01
  8.50000000E-01  8.50000000E-01  8.50000000E-01  8.50000000E-01  8.50000000E-01
  8.50000000E-01  8.50000000E-01  8.50000000E-01  8.50000000E-01  8.50000000E-01
  8.50000000E-01  8.50000000E-01  8.50000000E-01  8.50000000E-01  8.50000000E-01
  8.50000000E-01  8.50000000E-01  8.50000000E-01  8.50000000E-01  8.50000000E-01
  8.50000000E-01  8.50000000E-01  8.50000000E-01  8.50000000E-01  8.50000000E-01
  8.50000000E-01  8.50000000E-01  8.50000000E-01  8.50000000E-01  8.50000000E-01
  8.50000000E-01  8.50000000E-01  8.50000000E-01  8.50000000E-01  8.50000000E-01
  8.50000000E-01  8.50000000E-01  8.50000000E-01  8.50000000E-01  8.50000000E-01
  8.50000000E-01  8.50000000E-01  8.50000000E-01  8.50000000E-01  8.50000000E-01
  8.50000000E-01  8.50000000E-01  8.50000000E-01  8.50000000E-01  8.50000000E-01
  8.50000000E-01  8.50000000E-01  8.50000000E-01  8.50000000E-01  8.50000000E-01
  8.50000000E-01  8.50000000E-01  8.50000000E-01  8.50000000E-01  8.50000000E-01
  8.50000000E-01  8.50000000E-01  8.50000000E-01  8.50000000E-01  8.50000000E-01
  8.50000000E-01  8.50000000E-01  8.50000000E-01  8.50000000E-01  8.50000000E-01
  8.50000000E-01  8.50000000E-01  8.50000000E-01  8.50000000E-01  8.50000000E-01
  8.50000000E-01  8.50000000E-01  8.50000000E-01  8.50000000E-01  8.50000000E-01
  8.50000000E-01  8.50000000E-01  8.50000000E-01  8.50000000E-01  8.50000000E-01
  8.50000000E-01  8.50000000E-01  8.50000000E-01  8.50000000E-01  8.50000000E-01
  8.50000000E-01  8.50000000E-01  8.50000000E-01  8.50000000E-01  8.50000000E-01
  8.50000000E-01  8.50000000E-01  8.50000000E-01  8.50000000E-01  8.50000000E-01
  8.50000000E-01  8.50000000E-01  8.50000000E-01  8.50000000E-01  8.50000000E-01
  8.50000000E-01  8.50000000E-01  8.50000000E-01  8.50000000E-01  8.50000000E-01
  8.50000000E-01  8.50000000E-01  8.50000000E-01  8.50000000E-01  8.50000000E-01
  8.50000000E-01  8.50000000E-01  8.50000000E-01  8.50000000E-01  8.50000000E-01
  8.50000000E-01  8.50000000E-01  8.50000000E-01  8.50000000E-01  8.50000000E-01
  8.50000000E-01  8.50000000E-01  8.50000000E-01  8.50000000E-01  8.50000000E-01
  8.50000000E-01  8.50000000E-01  8.50000000E-01  8.50000000E-01  8.50000000E-01
  8.50000000E-01  8.50000000E-01  8.50000000E-01  8.50000000E-01  8.50000000E-01
  8.50000000E-01  8.50000000E-01  8.50000000E-01  8.50000000E-01  8.50000000E-01
  8.50000000E-01  8.50000000E-01  8.50000000E-01  8.50000000E-01  8.50000000E-01
  8.50000000E-01  8.50000000E-01  8.50000000E-01  8.50000000E-01  8.50000000E-01
  8.50000000E-01  8.50000000E-01  8.50000000E-01  8.50000000E-01  8.50000000E-01
  8.50000000E-01  8.50000000E-01  8.50000000E-01  8.50000000E-01  8.50000000E-01
  8.50000000E-01  8.50000000E-01  8.50000000E-01  8.50000000E-01  8.50000000E-01
  8.50000000E-01  8.50000000E-01  8.50000000E-01  8.50000000E-01  8.50000000E-01
  8.50000000E-01  8.50000000E-01  8.50000000E-01  8.50000000E-01  8.50000000E-01
  8.50000000E-01  8.50000000E-01  8.50000000E-01  8.50000000E-01  8.50000000E-01
  8.50000000E-01  8.50000000E-01  8.50000000E-01  8.50000000E-01  8.50000000E-01
  8.50000000E-01  8.50000000E-01  8.50000000E-01  8.50000000E-01  8.50000000E-01
  8.50000000E-01  8.50000000E-01  8.50000000E-01  8.50000000E-01  8.50000000E-01
  8.50000000E-01  8.50000000E-01  8.50000000E-01  8.50000000E-01  8.50000000E-01
  8.50000000E-01  8.50000000E-01  8.50000000E-01  8.50000000E-01  8.50000000E-01
  8.50000000E-01  8.50000000E-01  8.50000000E-01  8.50000000E-01  8.50000000E-01
  8.50000000E-01  8.50000000E-01  8.50000000E-01  8.50000000E-01  8.50000000E-01
  8.50000000E-01  8.50000000E-01  8.50000000E-01  8.50000000E-01  8.50000000E-01
  8.50000000E-01  8.50000000E-01  8.50000000E-01  8.50000000E-01  8.50000000E-01
  8.50000000E-01  8.50000000E-01  8.50000000E-01  8.50000000E-01  8.50000000E-01
  8.50000000E-01  8.50000000E-01  8.50000000E-01  8.50000000E-01  8.50000000E-01
  8.50000000E-01  8.50000000E-01  8.50000000E-01  8.50000000E-01  8.50000000E-01
  8.50000000E-01  8.50000000E-01  8.50000000E-01  8.50000000E-01  8.50000000E-01
  8.50000000E-01  8.50000000E-01  8.50000000E-01  8.50000000E-01  8.50000000E-01
  8.50000000E-01  8.50000000E-01  8.50000000E-01  8.50000000E-01  8.50000000E-01
  8.50000000E-01  8.50000000E-01  8.50000000E-01  8.50000000E-01  8.50000000E-01
  8.50000000E-01  8.50000000E-01  8.50000000E-01  8.50000000E-01  8.50000000E-01
  8.50000000E-01  8.50000000E-01  8.50000000E-01  8.50000000E-01  8.50000000E-01
  8.50000000E-01  8.50000000E-01  8.50000000E-01  8.50000000E-01  8.50000000E-01
  8.50000000E-01  8.50000000E-01  8.50000000E-01  8.50000000E-01  8.50000000E-01
  8.50000000E-01  8.50000000E-01  8.50000000E-01  8.50000000E-01  8.50000000E-01
  8.50000000E-01  8.50000000E-01  8.50000000E-01  8.50000000E-01  8.50000000E-01
  8.50000000E-01  8.50000000E-01  8.50000000E-01  8.50000000E-01  8.50000000E-01
  8.50000000E-01  8.50000000E-01  8.50000000E-01  8.50000000E-01  8.50000000E-01
  8.50000000E-01  8.50000000E-01  8.50000000E-01  8.50000000E-01  8.50000000E-01
  8.50000000E-01  8.50000000E-01  8.50000000E-01  8.50000000E-01  8.50000000E-01
  8.50000000E-01  8.50000000E-01  8.50000000E-01  8.50000000E-01  8.50000000E-01
  8.50000000E-01  8.50000000E-01  8.50000000E-01  8.50000000E-01  8.50000000E-01
  8.50000000E-01  8.50000000E-01  8.50000000E-01  8.50000000E-01  8.50000000E-01
  8.50000000E-01  8.50000000E-01  8.50000000E-01  8.50000000E-01  8.50000000E-01
  8.50000000E-01  8.50000000E-01  8.50000000E-01  8.50000000E-01  8.50000000E-01
  8.50000000E-01  8.50000000E-01  8.50000000E-01  8.50000000E-01  8.50000000E-01
  8.50000000E-01  8.50000000E-01  8.50000000E-01  8.50000000E-01  8.50000000E-01
  8.50000000E-01  8.50000000E-01  8.50000000E-01  8.50000000E-01  8.50000000E-01
  8.50000000E-01  8.50000000E-01  8.50000000E-01  8.50000000E-01  8.50000000E-01
  8.50000000E-01  8.50000000E-01  8.50000000E-01  8.50000000E-01  8.50000000E-01
  8.50000000E-01  8.50000000E-01  8.50000000E-01  8.50000000E-01  8.50000000E-01
  8.50000000E-01  8.50000000E-01  8.50000000E-01  8.50000000E-01  8.50000000E-01
  8.50000000E-01  8.50000000E-01  8.50000000E-01  8.50000000E-01  8.50000000E-01
  8.50000000E-01  8.50000000E-01  8.50000000E-01  8.50000000E-01  8.50000000E-01
  8.50000000E-01  8.50000000E-01  8.50000000E-01  8.50000000E-01  8.50000000E-01
  8.50000000E-01  8.50000000E-01  8.50000000E-01  8.50000000E-01  8.50000000E-01
  8.50000000E-01  8.50000000E-01  8.50000000E-01  8.50000000E-01  8.50000000E-01
  8.50000000E-01  8.50000000E-01  8.50000000E-01  8.50000000E-01  8.50000000E-01
  8.50000000E-01  8.50000000E-01  8.50000000E-01  8.50000000E-01  8.50000000E-01
  8.50000000E-01  8.50000000E-01  8.50000000E-01  8.50000000E-01  8.50000000E-01
  8.50000000E-01  8.50000000E-01  8.50000000E-01  8.50000000E-01  8.50000000E-01
  8.50000000E-01  8.50000000E-01  8.50000000E-01  8.50000000E-01  8.50000000E-01
  8.50000000E-01  8.50000000E-01  8.50000000E-01  8.50000000E-01  8.50000000E-01
  8.50000000E-01  8.50000000E-01  8.50000000E-01  8.50000000E-01  8.50000000E-01
  8.50000000E-01  8.50000000E-01  8.50000000E-01  8.50000000E-01  8.50000000E-01
  8.50000000E-01  8.50000000E-01  8.50000000E-01  8.50000000E-01  8.50000000E-01
  8.50000000E-01  8.50000000E-01  8.50000000E-01  8.50000000E-01  8.50000000E-01
  8.50000000E-01  8.50000000E-01  8.50000000E-01  8.50000000E-01  8.50000000E-01
  8.50000000E-01  8.50000000E-01  8.50000000E-01  8.50000000E-01  8.50000000E-01
  8.50000000E-01  8.50000000E-01  8.50000000E-01  8.50000000E-01  8.50000000E-01
  8.50000000E-01  8.50000000E-01  8.50000000E-01  8.50000000E-01  8.50000000E-01
  8.50000000E-01  8.50000000E-01  8.50000000E-01  8.50000000E-01  8.50000000E-01
  8.50000000E-01  8.50000000E-01  8.50000000E-01  8.50000000E-01  8.50000000E-01
  8.50000000E-01  8.50000000E-01  8.50000000E-01  8.50000000E-01  8.50000000E-01
  8.50000000E-01  8.50000000E-01  8.50000000E-01  8.50000000E-01  8.50000000E-01
  8.50000000E-01  8.50000000E-01  8.50000000E-01  8.50000000E-01  8.50000000E-01
  8.50000000E-01  8.50000000E-01  8.50000000E-01  8.50000000E-01  8.50000000E-01
  8.50000000E-01  8.50000000E-01  8.50000000E-01  8.50000000E-01  8.50000000E-01
  8.50000000E-01  8.50000000E-01  8.50000000E-01  8.50000000E-01  8.50000000E-01
  8.50000000E-01  8.50000000E-01  8.50000000E-01  8.50000000E-01  8.50000000E-01
  8.50000000E-01  8.50000000E-01  8.50000000E-01  8.50000000E-01  8.50000000E-01
  8.50000000E-01  8.50000000E-01  8.50000000E-01  8.50000000E-01  8.50000000E-01
  8.50000000E-01  8.50000000E-01  8.50000000E-01  8.50000000E-01  8.50000000E-01
  8.50000000E-01  8.50000000E-01  8.50000000E-01  8.50000000E-01  8.50000000E-01
  8.50000000E-01  8.50000000E-01  8.50000000E-01  8.50000000E-01  8.50000000E-01
  8.50000000E-01  8.50000000E-01  8.50000000E-01  8.50000000E-01  8.50000000E-01
  8.50000000E-01  8.50000000E-01  8.50000000E-01  8.50000000E-01  8.50000000E-01
  8.50000000E-01  8.50000000E-01  8.50000000E-01  8.50000000E-01  8.50000000E-01
  8.50000000E-01  8.50000000E-01  8.50000000E-01  8.50000000E-01  8.50000000E-01
  8.50000000E-01  8.50000000E-01  8.50000000E-01  8.50000000E-01  8.50000000E-01
  8.50000000E-01  8.50000000E-01  8.50000000E-01  8.50000000E-01  8.50000000E-01
  8.50000000E-01  8.50000000E-01  8.50000000E-01  8.50000000E-01  8.50000000E-01
  8.50000000E-01  8.50000000E-01  8.50000000E-01  8.50000000E-01  8.50000000E-01
  8.50000000E-01  8.50000000E-01  8.50000000E-01  8.50000000E-01  8.50000000E-01
  8.50000000E-01  8.50000000E-01  8.50000000E-01  8.50000000E-01  8.50000000E-01
  8.50000000E-01  8.50000000E-01  8.50000000E-01  8.50000000E-01  8.50000000E-01
  8.50000000E-01  8.50000000E-01  8.50000000E-01  8.50000000E-01  8.50000000E-01
  8.50000000E-01  8.50000000E-01  8.50000000E-01  8.50000000E-01  8.50000000E-01
  8.50000000E-01  8.50000000E-01  8.50000000E-01  8.50000000E-01  8.50000000E-01
  8.50000000E-01  8.50000000E-01  8.50000000E-01  8.50000000E-01  8.50000000E-01
  8.50000000E-01  8.50000000E-01  8.50000000E-01  8.50000000E-01  8.50000000E-01
  8.50000000E-01  8.50000000E-01  8.50000000E-01  8.50000000E-01  8.50000000E-01
  8.50000000E-01  8.50000000E-01  8.50000000E-01  8.50000000E-01  8.50000000E-01
  8.50000000E-01  8.50000000E-01  8.50000000E-01  8.50000000E-01  8.50000000E-01
  8.50000000E-01  8.50000000E-01  8.50000000E-01  8.50000000E-01  8.50000000E-01
  8.50000000E-01  8.50000000E-01  8.50000000E-01  8.50000000E-01  8.50000000E-01
  8.50000000E-01  8.50000000E-01  8.50000000E-01  8.50000000E-01  8.50000000E-01
  8.50000000E-01  8.50000000E-01  8.50000000E-01  8.50000000E-01  8.50000000E-01
  8.50000000E-01  8.50000000E-01  8.50000000E-01  8.50000000E-01  8.50000000E-01
  8.50000000E-01  8.50000000E-01  8.50000000E-01  8.50000000E-01  8.50000000E-01
  8.50000000E-01  8.50000000E-01  8.50000000E-01  8.50000000E-01  8.50000000E-01
  8.50000000E-01  8.50000000E-01  8.50000000E-01  8.50000000E-01  8.50000000E-01
  8.50000000E-01  8.50000000E-01  8.50000000E-01  8.50000000E-01  8.50000000E-01
  8.50000000E-01  8.50000000E-01  8.50000000E-01  8.50000000E-01  8.50000000E-01
  8.50000000E-01  8.50000000E-01  8.50000000E-01  8.50000000E-01  8.50000000E-01
  8.50000000E-01  8.50000000E-01  8.50000000E-01  8.50000000E-01  8.50000000E-01
  8.50000000E-01  8.50000000E-01  8.50000000E-01  8.50000000E-01  8.50000000E-01
  8.50000000E-01  8.50000000E-01  8.50000000E-01  8.50000000E-01  8.50000000E-01
  8.50000000E-01  8.50000000E-01  8.50000000E-01  8.50000000E-01  8.50000000E-01
  8.50000000E-01  8.50000000E-01  8.50000000E-01  8.50000000E-01  8.50000000E-01
  8.50000000E-01  8.50000000E-01  8.50000000E-01  8.50000000E-01  8.50000000E-01
  8.50000000E-01  8.50000000E-01  8.50000000E-01  8.50000000E-01  8.50000000E-01
  8.50000000E-01  8.50000000E-01  8.50000000E-01  8.50000000E-01  8.50000000E-01
  8.50000000E-01  8.50000000E-01  8.50000000E-01  8.50000000E-01  8.50000000E-01
  8.50000000E-01  8.50000000E-01  8.50000000E-01  8.50000000E-01  8.50000000E-01
  8.50000000E-01  8.50000000E-01  8.50000000E-01  8.50000000E-01  8.50000000E-01
  8.50000000E-01  8.50000000E-01  8.50000000E-01  8.50000000E-01  8.50000000E-01
  8.50000000E-01  8.50000000E-01  8.50000000E-01  8.50000000E-01  8.50000000E-01
  8.50000000E-01  8.50000000E-01  8.50000000E-01  8.50000000E-01  8.50000000E-01
  8.50000000E-01  8.50000000E-01  8.50000000E-01  8.50000000E-01  8.50000000E-01
  8.50000000E-01  8.50000000E-01  8.50000000E-01  8.50000000E-01  8.50000000E-01
  8.50000000E-01  8.50000000E-01  8.50000000E-01  8.50000000E-01  8.50000000E-01
  8.50000000E-01  8.50000000E-01  8.50000000E-01  8.50000000E-01  8.50000000E-01
  8.50000000E-01  8.50000000E-01  8.50000000E-01  8.50000000E-01  8.50000000E-01
  8.50000000E-01  8.50000000E-01  8.50000000E-01  8.50000000E-01  8.50000000E-01
  8.50000000E-01  8.50000000E-01  8.50000000E-01  8.50000000E-01  8.50000000E-01
  8.50000000E-01  8.50000000E-01  8.50000000E-01  8.50000000E-01  8.50000000E-01
  8.50000000E-01  8.50000000E-01  8.50000000E-01  8.50000000E-01  8.50000000E-01
  8.50000000E-01  8.50000000E-01  8.50000000E-01  8.50000000E-01  8.50000000E-01
  8.50000000E-01  8.50000000E-01  8.50000000E-01  8.50000000E-01  8.50000000E-01
  8.50000000E-01  8.50000000E-01  8.50000000E-01  8.50000000E-01  8.50000000E-01
  8.50000000E-01  8.50000000E-01  8.50000000E-01  8.50000000E-01  8.50000000E-01
  8.50000000E-01  8.50000000E-01  8.50000000E-01  8.50000000E-01  8.50000000E-01
  8.50000000E-01  8.50000000E-01  8.50000000E-01  8.50000000E-01  8.50000000E-01
  8.50000000E-01  8.50000000E-01  8.50000000E-01  8.50000000E-01  8.50000000E-01
  8.50000000E-01  8.50000000E-01  8.50000000E-01  8.50000000E-01  8.50000000E-01
  8.50000000E-01  8.50000000E-01  8.50000000E-01  8.50000000E-01  8.50000000E-01
  8.50000000E-01  8.50000000E-01  8.50000000E-01  8.50000000E-01  8.50000000E-01
  8.50000000E-01  8.50000000E-01  8.50000000E-01  8.50000000E-01  8.50000000E-01
  8.50000000E-01  8.50000000E-01  8.50000000E-01  8.50000000E-01  8.50000000E-01
  8.50000000E-01  8.50000000E-01  8.50000000E-01  8.50000000E-01  8.50000000E-01
  8.50000000E-01  8.50000000E-01  8.50000000E-01  8.50000000E-01  8.50000000E-01
  8.50000000E-01  8.50000000E-01  8.50000000E-01  8.50000000E-01  8.50000000E-01
  8.50000000E-01  8.50000000E-01  8.50000000E-01  8.50000000E-01  8.50000000E-01
  8.50000000E-01  8.50000000E-01  8.50000000E-01  8.50000000E-01  8.50000000E-01
  8.50000000E-01  8.50000000E-01  8.50000000E-01  8.50000000E-01  8.50000000E-01
  8.50000000E-01  8.50000000E-01  8.50000000E-01  8.50000000E-01  8.50000000E-01
  8.50000000E-01  8.50000000E-01  8.50000000E-01  8.50000000E-01  8.50000000E-01
  8.50000000E-01  8.50000000E-01  8.50000000E-01  8.50000000E-01  8.50000000E-01
  8.50000000E-01  8.50000000E-01  8.50000000E-01  8.50000000E-01  8.50000000E-01
  8.50000000E-01  8.50000000E-01  8.50000000E-01  8.50000000E-01  8.50000000E-01
  8.50000000E-01  8.50000000E-01  8.50000000E-01  8.50000000E-01  8.50000000E-01
  8.50000000E-01  8.50000000E-01  8.50000000E-01  8.50000000E-01  8.50000000E-01
  8.50000000E-01  8.50000000E-01  8.50000000E-01  8.50000000E-01  8.50000000E-01
  8.50000000E-01  8.50000000E-01  8.50000000E-01  8.50000000E-01  8.50000000E-01
  8.50000000E-01  8.50000000E-01  8.50000000E-01  8.50000000E-01  8.50000000E-01
  8.50000000E-01  8.50000000E-01  8.50000000E-01  8.50000000E-01  8.50000000E-01
  8.50000000E-01  8.50000000E-01  8.50000000E-01  8.50000000E-01  8.50000000E-01
  8.50000000E-01  8.50000000E-01  8.50000000E-01  8.50000000E-01  8.50000000E-01
  8.50000000E-01  8.50000000E-01  8.50000000E-01  8.50000000E-01  8.50000000E-01
  8.50000000E-01  8.50000000E-01  8.50000000E-01  8.50000000E-01  8.50000000E-01
  8.50000000E-01  8.50000000E-01  8.50000000E-01  8.50000000E-01  8.50000000E-01
  8.50000000E-01  8.50000000E-01  8.50000000E-01  8.50000000E-01  8.50000000E-01
  8.50000000E-01  8.50000000E-01  8.50000000E-01  8.50000000E-01  8.50000000E-01
  8.50000000E-01  8.50000000E-01  8.50000000E-01  8.50000000E-01  8.50000000E-01
  8.50000000E-01  8.50000000E-01  8.50000000E-01  8.50000000E-01  8.50000000E-01
  8.50000000E-01  8.50000000E-01  8.50000000E-01  8.50000000E-01  8.50000000E-01
  8.50000000E-01  8.50000000E-01  8.50000000E-01  8.50000000E-01  8.50000000E-01
  8.50000000E-01  8.50000000E-01  8.50000000E-01  8.50000000E-01  8.50000000E-01
  8.50000000E-01  8.50000000E-01  8.50000000E-01  8.50000000E-01  8.50000000E-01
  8.50000000E-01  8.50000000E-01  8.50000000E-01  8.50000000E-01  8.50000000E-01
  8.50000000E-01  8.50000000E-01  8.50000000E-01  8.50000000E-01  8.50000000E-01
  8.50000000E-01  8.50000000E-01  8.50000000E-01  8.50000000E-01  8.50000000E-01
  8.50000000E-01  8.50000000E-01  8.50000000E-01  8.50000000E-01  8.50000000E-01
  8.50000000E-01  8.50000000E-01  8.50000000E-01  8.50000000E-01  8.50000000E-01
  8.50000000E-01  8.50000000E-01  8.50000000E-01  8.50000000E-01  8.50000000E-01
  8.50000000E-01  8.50000000E-01  8.50000000E-01  8.50000000E-01  8.50000000E-01
  8.50000000E-01  8.50000000E-01  8.50000000E-01  8.50000000E-01  8.50000000E-01
  8.50000000E-01  8.50000000E-01  8.50000000E-01  8.50000000E-01  8.50000000E-01
  8.50000000E-01  8.50000000E-01  8.50000000E-01  8.50000000E-01  8.50000000E-01
  8.50000000E-01  8.50000000E-01  8.50000000E-01  8.50000000E-01  8.50000000E-01
  8.50000000E-01  8.50000000E-01  8.50000000E-01  8.50000000E-01  8.50000000E-01
  8.50000000E-01  8.50000000E-01  8.50000000E-01  8.50000000E-01  8.50000000E-01
  8.50000000E-01  8.50000000E-01  8.50000000E-01  8.50000000E-01  8.50000000E-01
  8.50000000E-01  8.50000000E-01  8.50000000E-01  8.50000000E-01  8.50000000E-01
  8.50000000E-01  8.50000000E-01  8.50000000E-01  8.50000000E-01  8.50000000E-01
  8.50000000E-01  8.50000000E-01  8.50000000E-01  8.50000000E-01  8.50000000E-01
  8.50000000E-01  8.50000000E-01  8.50000000E-01  8.50000000E-01  8.50000000E-01
  8.50000000E-01  8.50000000E-01  8.50000000E-01  8.50000000E-01  8.50000000E-01
  8.50000000E-01  8.50000000E-01  8.50000000E-01  8.50000000E-01  8.50000000E-01
  8.50000000E-01  8.50000000E-01  8.50000000E-01  8.50000000E-01  8.50000000E-01
  8.50000000E-01  8.50000000E-01  8.50000000E-01  8.50000000E-01  8.50000000E-01
  8.50000000E-01  8.50000000E-01  8.50000000E-01  8.50000000E-01  8.50000000E-01
  8.50000000E-01  8.50000000E-01  8.50000000E-01  8.50000000E-01  8.50000000E-01
  8.50000000E-01  8.50000000E-01  8.50000000E-01  8.50000000E-01  8.50000000E-01
  8.50000000E-01  8.50000000E-01  8.50000000E-01  8.50000000E-01  8.50000000E-01
  8.50000000E-01  8.50000000E-01  8.50000000E-01  8.50000000E-01  8.50000000E-01
  8.50000000E-01  8.50000000E-01  8.50000000E-01  8.50000000E-01  8.50000000E-01
  8.50000000E-01  8.50000000E-01  8.50000000E-01  8.50000000E-01  8.50000000E-01
  8.50000000E-01  8.50000000E-01  8.50000000E-01  8.50000000E-01  8.50000000E-01
  8.50000000E-01  8.50000000E-01  8.50000000E-01  8.50000000E-01  8.50000000E-01
  8.50000000E-01  8.50000000E-01  8.50000000E-01  8.50000000E-01  8.50000000E-01
  8.50000000E-01  8.50000000E-01  8.50000000E-01  8.50000000E-01  8.50000000E-01
  8.50000000E-01  8.50000000E-01  8.50000000E-01  8.50000000E-01  8.50000000E-01
  8.50000000E-01  8.50000000E-01  8.50000000E-01  8.50000000E-01  8.50000000E-01
  8.50000000E-01  8.50000000E-01  8.50000000E-01  8.50000000E-01  8.50000000E-01
  8.50000000E-01  8.50000000E-01  8.50000000E-01  8.50000000E-01  8.50000000E-01
  8.50000000E-01  8.50000000E-01  8.50000000E-01  8.50000000E-01  8.50000000E-01
  8.50000000E-01  8.50000000E-01  8.50000000E-01  8.50000000E-01  8.50000000E-01
  8.50000000E-01  8.50000000E-01  8.50000000E-01  8.50000000E-01  8.50000000E-01
  8.50000000E-01  8.50000000E-01  8.50000000E-01  8.50000000E-01  8.50000000E-01
  8.50000000E-01  8.50000000E-01  8.50000000E-01  8.50000000E-01  8.50000000E-01
  8.50000000E-01  8.50000000E-01  8.50000000E-01  8.50000000E-01  8.50000000E-01
  8.50000000E-01  8.50000000E-01  8.50000000E-01  8.50000000E-01  8.50000000E-01
  8.50000000E-01  8.50000000E-01  8.50000000E-01  8.50000000E-01  8.50000000E-01
  8.50000000E-01  8.50000000E-01  8.50000000E-01  8.50000000E-01  8.50000000E-01
  8.50000000E-01  8.50000000E-01  8.50000000E-01  8.50000000E-01  8.50000000E-01
  8.50000000E-01  8.50000000E-01  8.50000000E-01  8.50000000E-01  8.50000000E-01
  8.50000000E-01  8.50000000E-01  8.50000000E-01  8.50000000E-01  8.50000000E-01
  8.50000000E-01  8.50000000E-01  8.50000000E-01  8.50000000E-01  8.50000000E-01
  8.50000000E-01  8.50000000E-01  8.50000000E-01  8.50000000E-01  8.50000000E-01
  8.50000000E-01  8.50000000E-01  8.50000000E-01  8.50000000E-01  8.50000000E-01
  8.50000000E-01  8.50000000E-01  8.50000000E-01  8.50000000E-01  8.50000000E-01
  8.50000000E-01  8.50000000E-01  8.50000000E-01  8.50000000E-01  8.50000000E-01
  8.50000000E-01  8.50000000E-01  8.50000000E-01  8.50000000E-01  8.50000000E-01
  8.50000000E-01  8.50000000E-01  8.50000000E-01  8.50000000E-01  8.50000000E-01
  8.50000000E-01  8.50000000E-01  8.50000000E-01  8.50000000E-01  8.50000000E-01
  8.50000000E-01  8.50000000E-01  8.50000000E-01  8.50000000E-01  8.50000000E-01
  8.50000000E-01  8.50000000E-01  8.50000000E-01  8.50000000E-01  8.50000000E-01
  8.50000000E-01  8.50000000E-01  8.50000000E-01  8.50000000E-01  8.50000000E-01
  8.50000000E-01  8.50000000E-01  8.50000000E-01  8.50000000E-01  8.50000000E-01
  8.50000000E-01  8.50000000E-01  8.50000000E-01  8.50000000E-01  8.50000000E-01
  8.50000000E-01  8.50000000E-01  8.50000000E-01  8.50000000E-01  8.50000000E-01
  8.50000000E-01  8.50000000E-01  8.50000000E-01  8.50000000E-01  8.50000000E-01
  8.50000000E-01  8.50000000E-01  8.50000000E-01  8.50000000E-01  8.50000000E-01
  8.50000000E-01  8.50000000E-01  8.50000000E-01  8.50000000E-01  8.50000000E-01
  8.50000000E-01  8.50000000E-01  8.50000000E-01  8.50000000E-01  8.50000000E-01
  8.50000000E-01  8.50000000E-01  8.50000000E-01  8.50000000E-01  8.50000000E-01
  8.50000000E-01  8.50000000E-01  8.50000000E-01  8.50000000E-01  8.50000000E-01
  8.50000000E-01  8.50000000E-01  8.50000000E-01  8.50000000E-01  8.50000000E-01
  8.50000000E-01  8.50000000E-01  8.50000000E-01  8.50000000E-01  8.50000000E-01
  8.50000000E-01  8.50000000E-01  8.50000000E-01  8.50000000E-01  8.50000000E-01
  8.50000000E-01  8.50000000E-01  8.50000000E-01  8.50000000E-01  8.50000000E-01
  8.50000000E-01  8.50000000E-01  8.50000000E-01  8.50000000E-01  8.50000000E-01
  8.50000000E-01  8.50000000E-01  8.50000000E-01  8.50000000E-01  8.50000000E-01
  8.50000000E-01  8.50000000E-01  8.50000000E-01  8.50000000E-01  8.50000000E-01
  8.50000000E-01  8.50000000E-01  8.50000000E-01  8.50000000E-01  8.50000000E-01
  8.50000000E-01  8.50000000E-01  8.50000000E-01  8.50000000E-01  8.50000000E-01
  8.50000000E-01  8.50000000E-01  8.50000000E-01  8.50000000E-01  8.50000000E-01
  8.50000000E-01  8.50000000E-01  8.50000000E-01  8.50000000E-01  8.50000000E-01
  8.50000000E-01  8.50000000E-01  8.50000000E-01  8.50000000E-01  8.50000000E-01
  8.50000000E-01  8.50000000E-01  8.50000000E-01  8.50000000E-01  8.50000000E-01
  8.50000000E-01  8.50000000E-01  8.50000000E-01  8.50000000E-01  8.50000000E-01
  8.50000000E-01  8.50000000E-01  8.50000000E-01  8.50000000E-01  8.50000000E-01
  8.50000000E-01  8.50000000E-01  8.50000000E-01  8.50000000E-01  8.50000000E-01
  8.50000000E-01  8.50000000E-01  8.50000000E-01  8.50000000E-01  8.50000000E-01
  8.50000000E-01  8.50000000E-01  8.50000000E-01  8.50000000E-01  8.50000000E-01
  8.50000000E-01  8.50000000E-01  8.50000000E-01  8.50000000E-01  8.50000000E-01
  8.50000000E-01  8.50000000E-01  8.50000000E-01  8.50000000E-01  8.50000000E-01
  8.50000000E-01  8.50000000E-01  8.50000000E-01  8.50000000E-01  8.50000000E-01
  8.50000000E-01  8.50000000E-01  8.50000000E-01  8.50000000E-01  8.50000000E-01
  8.50000000E-01  8.50000000E-01  8.50000000E-01  8.50000000E-01  8.50000000E-01
  8.50000000E-01  8.50000000E-01  8.50000000E-01  8.50000000E-01  8.50000000E-01
  8.50000000E-01  8.50000000E-01  8.50000000E-01  8.50000000E-01  8.50000000E-01
  8.50000000E-01  8.50000000E-01  8.50000000E-01  8.50000000E-01  8.50000000E-01
  8.50000000E-01  8.50000000E-01  8.50000000E-01  8.50000000E-01  8.50000000E-01
  8.50000000E-01  8.50000000E-01  8.50000000E-01  8.50000000E-01  8.50000000E-01
  8.50000000E-01  8.50000000E-01  8.50000000E-01  8.50000000E-01  8.50000000E-01
  8.50000000E-01  8.50000000E-01  8.50000000E-01  8.50000000E-01  8.50000000E-01
  8.50000000E-01  8.50000000E-01  8.50000000E-01  8.50000000E-01  8.50000000E-01
  8.50000000E-01  8.50000000E-01  8.50000000E-01  8.50000000E-01  8.50000000E-01
  8.50000000E-01  8.50000000E-01  8.50000000E-01  8.50000000E-01  8.50000000E-01
  8.50000000E-01  8.50000000E-01  8.50000000E-01  8.50000000E-01  8.50000000E-01
  8.50000000E-01  8.50000000E-01  8.50000000E-01  8.50000000E-01  8.50000000E-01
  8.50000000E-01  8.50000000E-01  8.50000000E-01  8.50000000E-01  8.50000000E-01
  8.50000000E-01  8.50000000E-01  8.50000000E-01  8.50000000E-01  8.50000000E-01
  8.50000000E-01  8.50000000E-01  8.50000000E-01  8.50000000E-01  8.50000000E-01
  8.50000000E-01  8.50000000E-01  8.50000000E-01  8.50000000E-01  8.50000000E-01
  8.50000000E-01  8.50000000E-01  8.50000000E-01  8.50000000E-01  8.50000000E-01
  8.50000000E-01  8.50000000E-01  8.50000000E-01  8.50000000E-01  8.50000000E-01
  8.50000000E-01  8.50000000E-01  8.50000000E-01  8.50000000E-01  8.50000000E-01
  8.50000000E-01  8.50000000E-01  8.50000000E-01  8.50000000E-01  8.50000000E-01
  8.50000000E-01  8.50000000E-01  8.50000000E-01  8.50000000E-01  8.50000000E-01
  8.50000000E-01  8.50000000E-01  8.50000000E-01  8.50000000E-01  8.50000000E-01
  8.50000000E-01  8.50000000E-01  8.50000000E-01  8.50000000E-01  8.50000000E-01
  8.50000000E-01  8.50000000E-01  8.50000000E-01  8.50000000E-01  8.50000000E-01
  8.50000000E-01  8.50000000E-01  8.50000000E-01  8.50000000E-01  8.50000000E-01
  8.50000000E-01  8.50000000E-01  8.50000000E-01  8.50000000E-01  8.50000000E-01
  8.50000000E-01  8.50000000E-01  8.50000000E-01  8.50000000E-01  8.50000000E-01
  8.50000000E-01  8.50000000E-01  8.50000000E-01  8.50000000E-01  8.50000000E-01
  8.50000000E-01  8.50000000E-01  8.50000000E-01  8.50000000E-01  8.50000000E-01
  8.50000000E-01  8.50000000E-01  8.50000000E-01  8.50000000E-01  8.50000000E-01
  8.50000000E-01  8.50000000E-01  8.50000000E-01  8.50000000E-01  8.50000000E-01
  8.50000000E-01  8.50000000E-01  8.50000000E-01  8.50000000E-01  8.50000000E-01
  8.50000000E-01  8.50000000E-01  8.50000000E-01  8.50000000E-01  8.50000000E-01
  8.50000000E-01  8.50000000E-01  8.50000000E-01  8.50000000E-01  8.50000000E-01
  8.50000000E-01  8.50000000E-01  8.50000000E-01  8.50000000E-01  8.50000000E-01
  8.50000000E-01  8.50000000E-01  8.50000000E-01  8.50000000E-01  8.50000000E-01
  8.50000000E-01  8.50000000E-01  8.50000000E-01  8.50000000E-01  8.50000000E-01
  8.50000000E-01  8.50000000E-01  8.50000000E-01  8.50000000E-01  8.50000000E-01
  8.50000000E-01  8.50000000E-01  8.50000000E-01  8.50000000E-01  8.50000000E-01
  8.50000000E-01  8.50000000E-01  8.50000000E-01  8.50000000E-01  8.50000000E-01
  8.50000000E-01  8.50000000E-01  8.50000000E-01  8.50000000E-01  8.50000000E-01
  8.50000000E-01  8.50000000E-01  8.50000000E-01  8.50000000E-01  8.50000000E-01
  8.50000000E-01  8.50000000E-01  8.50000000E-01  8.50000000E-01  8.50000000E-01
  8.50000000E-01  8.50000000E-01  8.50000000E-01  8.50000000E-01  8.50000000E-01
  8.50000000E-01  8.50000000E-01  8.50000000E-01  8.50000000E-01  8.50000000E-01
  8.50000000E-01  8.50000000E-01  8.50000000E-01  8.50000000E-01  8.50000000E-01
  8.50000000E-01  8.50000000E-01  8.50000000E-01  8.50000000E-01  8.50000000E-01
  8.50000000E-01  8.50000000E-01  8.50000000E-01  8.50000000E-01  8.50000000E-01
  8.50000000E-01  8.50000000E-01  8.50000000E-01  8.50000000E-01  8.50000000E-01
  8.50000000E-01  8.50000000E-01  8.50000000E-01  8.50000000E-01  8.50000000E-01
  8.50000000E-01  8.50000000E-01  8.50000000E-01  8.50000000E-01  8.50000000E-01
  8.50000000E-01  8.50000000E-01  8.50000000E-01  8.50000000E-01  8.50000000E-01
  8.50000000E-01  8.50000000E-01  8.50000000E-01  8.50000000E-01  8.50000000E-01
  8.50000000E-01  8.50000000E-01  8.50000000E-01  8.50000000E-01  8.50000000E-01
  8.50000000E-01  8.50000000E-01  8.50000000E-01  8.50000000E-01  8.50000000E-01
  8.50000000E-01  8.50000000E-01  8.50000000E-01  8.50000000E-01  8.50000000E-01
  8.50000000E-01  8.50000000E-01  8.50000000E-01  8.50000000E-01  8.50000000E-01
  8.50000000E-01  8.50000000E-01  8.50000000E-01  8.50000000E-01  8.50000000E-01
  8.50000000E-01  8.50000000E-01  8.50000000E-01  8.50000000E-01  8.50000000E-01
  8.50000000E-01  8.50000000E-01  8.50000000E-01  8.50000000E-01  8.50000000E-01
  8.50000000E-01  8.50000000E-01  8.50000000E-01  8.50000000E-01  8.50000000E-01
  8.50000000E-01  8.50000000E-01  8.50000000E-01  8.50000000E-01  8.50000000E-01
  8.50000000E-01  8.50000000E-01  8.50000000E-01  8.50000000E-01  8.50000000E-01
  8.50000000E-01  8.50000000E-01  8.50000000E-01  8.50000000E-01  8.50000000E-01
  8.50000000E-01  8.50000000E-01  8.50000000E-01  8.50000000E-01  8.50000000E-01
  8.50000000E-01  8.50000000E-01  8.50000000E-01  8.50000000E-01  8.50000000E-01
  8.50000000E-01  8.50000000E-01  8.50000000E-01  8.50000000E-01  8.50000000E-01
  8.50000000E-01  8.50000000E-01  8.50000000E-01  8.50000000E-01  8.50000000E-01
  8.50000000E-01  8.50000000E-01  8.50000000E-01  8.50000000E-01  8.50000000E-01
  8.50000000E-01  8.50000000E-01  8.50000000E-01  8.50000000E-01  8.50000000E-01
  8.50000000E-01  8.50000000E-01  8.50000000E-01  8.50000000E-01  8.50000000E-01
  8.50000000E-01  8.50000000E-01  8.50000000E-01  8.50000000E-01  8.50000000E-01
  8.50000000E-01  8.50000000E-01  8.50000000E-01  8.50000000E-01  8.50000000E-01
  8.50000000E-01  8.50000000E-01  8.50000000E-01  8.50000000E-01  8.50000000E-01
  8.50000000E-01  8.50000000E-01  8.50000000E-01  8.50000000E-01  8.50000000E-01
  8.50000000E-01  8.50000000E-01  8.50000000E-01  8.50000000E-01  8.50000000E-01
  8.50000000E-01  8.50000000E-01  8.50000000E-01  8.50000000E-01  8.50000000E-01
  8.50000000E-01  8.50000000E-01  8.50000000E-01  8.50000000E-01  8.50000000E-01
  8.50000000E-01  8.50000000E-01  8.50000000E-01  8.50000000E-01  8.50000000E-01
  8.50000000E-01  8.50000000E-01  8.50000000E-01  8.50000000E-01  8.50000000E-01
  8.50000000E-01  8.50000000E-01  8.50000000E-01  8.50000000E-01  8.50000000E-01
  8.50000000E-01  8.50000000E-01  8.50000000E-01  8.50000000E-01  8.50000000E-01
  8.50000000E-01  8.50000000E-01  8.50000000E-01  8.50000000E-01  8.50000000E-01
  8.50000000E-01  8.50000000E-01  8.50000000E-01  8.50000000E-01  8.50000000E-01
  8.50000000E-01  8.50000000E-01  8.50000000E-01  8.50000000E-01  8.50000000E-01
  8.50000000E-01  8.50000000E-01  8.50000000E-01  8.50000000E-01  8.50000000E-01
  8.50000000E-01  8.50000000E-01  8.50000000E-01  8.50000000E-01  8.50000000E-01
  8.50000000E-01  8.50000000E-01  8.50000000E-01  8.50000000E-01  8.50000000E-01
  8.50000000E-01  8.50000000E-01  8.50000000E-01  8.50000000E-01  8.50000000E-01
  8.50000000E-01  8.50000000E-01  8.50000000E-01  8.50000000E-01  8.50000000E-01
  8.50000000E-01  8.50000000E-01  8.50000000E-01  8.50000000E-01  8.50000000E-01
  8.50000000E-01  8.50000000E-01  8.50000000E-01  8.50000000E-01  8.50000000E-01
  8.50000000E-01  8.50000000E-01  8.50000000E-01  8.50000000E-01  8.50000000E-01
  8.50000000E-01  8.50000000E-01  8.50000000E-01  8.50000000E-01  8.50000000E-01
  8.50000000E-01  8.50000000E-01  8.50000000E-01  8.50000000E-01  8.50000000E-01
  8.50000000E-01  8.50000000E-01  8.50000000E-01  8.50000000E-01  8.50000000E-01
  8.50000000E-01  8.50000000E-01  8.50000000E-01  8.50000000E-01  8.50000000E-01
  8.50000000E-01  8.50000000E-01  8.50000000E-01  8.50000000E-01  8.50000000E-01
  8.50000000E-01  8.50000000E-01  8.50000000E-01  8.50000000E-01  8.50000000E-01
  8.50000000E-01  8.50000000E-01  8.50000000E-01  8.50000000E-01  8.50000000E-01
  8.50000000E-01  8.50000000E-01  8.50000000E-01  8.50000000E-01  8.50000000E-01
  8.50000000E-01  8.50000000E-01  8.50000000E-01  8.50000000E-01  8.50000000E-01
  8.50000000E-01  8.50000000E-01  8.50000000E-01  8.50000000E-01  8.50000000E-01
  8.50000000E-01  8.50000000E-01  8.50000000E-01  8.50000000E-01  8.50000000E-01
  8.50000000E-01  8.50000000E-01  8.50000000E-01  8.50000000E-01  8.50000000E-01
  8.50000000E-01  8.50000000E-01  8.50000000E-01  8.50000000E-01  8.50000000E-01
  8.50000000E-01  8.50000000E-01  8.50000000E-01  8.50000000E-01  8.50000000E-01
  8.50000000E-01  8.50000000E-01  8.50000000E-01  8.50000000E-01  8.50000000E-01
  8.50000000E-01  8.50000000E-01  8.50000000E-01  8.50000000E-01  8.50000000E-01
  8.50000000E-01  8.50000000E-01  8.50000000E-01  8.50000000E-01  8.50000000E-01
  8.50000000E-01  8.50000000E-01  8.50000000E-01  8.50000000E-01  8.50000000E-01
  8.50000000E-01  8.50000000E-01  8.50000000E-01  8.50000000E-01  8.50000000E-01
  8.50000000E-01  8.50000000E-01  8.50000000E-01  8.50000000E-01  8.50000000E-01
  8.50000000E-01  8.50000000E-01  8.50000000E-01  8.50000000E-01  8.50000000E-01
  8.50000000E-01  8.50000000E-01  8.50000000E-01  8.50000000E-01  8.50000000E-01
  8.50000000E-01  8.50000000E-01  8.50000000E-01  8.50000000E-01  8.50000000E-01
  8.50000000E-01  8.50000000E-01  8.50000000E-01  8.50000000E-01  8.50000000E-01
  8.50000000E-01  8.50000000E-01  8.50000000E-01  8.50000000E-01  8.50000000E-01
  8.50000000E-01  8.50000000E-01  8.50000000E-01  8.50000000E-01  8.50000000E-01
  8.50000000E-01  8.50000000E-01  8.50000000E-01  8.50000000E-01  8.50000000E-01
  8.50000000E-01  8.50000000E-01  8.50000000E-01  8.50000000E-01  8.50000000E-01
  8.50000000E-01  8.50000000E-01  8.50000000E-01  8.50000000E-01  8.50000000E-01
  8.50000000E-01  8.50000000E-01  8.50000000E-01  8.50000000E-01  8.50000000E-01
  8.50000000E-01  8.50000000E-01  8.50000000E-01  8.50000000E-01  8.50000000E-01
  8.50000000E-01  8.50000000E-01  8.50000000E-01  8.50000000E-01  8.50000000E-01
  8.50000000E-01  8.50000000E-01  8.50000000E-01  8.50000000E-01  8.50000000E-01
  8.50000000E-01  8.50000000E-01  8.50000000E-01  8.50000000E-01  8.50000000E-01
  8.50000000E-01  8.50000000E-01  8.50000000E-01  8.50000000E-01  8.50000000E-01
  8.50000000E-01  8.50000000E-01  8.50000000E-01  8.50000000E-01  8.50000000E-01
  8.50000000E-01  8.50000000E-01  8.50000000E-01  8.50000000E-01  8.50000000E-01
  8.50000000E-01  8.50000000E-01  8.50000000E-01  8.50000000E-01  8.50000000E-01
  8.50000000E-01  8.50000000E-01  8.50000000E-01  8.50000000E-01  8.50000000E-01
  8.50000000E-01  8.50000000E-01  8.50000000E-01  8.50000000E-01  8.50000000E-01
  8.50000000E-01  8.50000000E-01  8.50000000E-01  8.50000000E-01  8.50000000E-01
  8.50000000E-01  8.50000000E-01  8.50000000E-01  8.50000000E-01  8.50000000E-01
  8.50000000E-01  8.50000000E-01  8.50000000E-01  8.50000000E-01  8.50000000E-01
  8.50000000E-01  8.50000000E-01  8.50000000E-01  8.50000000E-01  8.50000000E-01
  8.50000000E-01  8.50000000E-01  8.50000000E-01  8.50000000E-01  8.50000000E-01
  8.50000000E-01  8.50000000E-01  8.50000000E-01  8.50000000E-01  8.50000000E-01
  8.50000000E-01  8.50000000E-01  8.50000000E-01  8.50000000E-01  8.50000000E-01
  8.50000000E-01  8.50000000E-01  8.50000000E-01  8.50000000E-01  8.50000000E-01
  8.50000000E-01  8.50000000E-01  8.50000000E-01  8.50000000E-01  8.50000000E-01
  8.50000000E-01  8.50000000E-01  8.50000000E-01  8.50000000E-01  8.50000000E-01
  8.50000000E-01  8.50000000E-01  8.50000000E-01  8.50000000E-01  8.50000000E-01
  8.50000000E-01  8.50000000E-01  8.50000000E-01  8.50000000E-01  8.50000000E-01
  8.50000000E-01  8.50000000E-01  8.50000000E-01  8.50000000E-01  8.50000000E-01
  8.50000000E-01  8.50000000E-01  8.50000000E-01  8.50000000E-01  8.50000000E-01
  8.50000000E-01  8.50000000E-01  8.50000000E-01  8.50000000E-01  8.50000000E-01
  8.50000000E-01  8.50000000E-01  8.50000000E-01  8.50000000E-01  8.50000000E-01
  8.50000000E-01  8.50000000E-01  8.50000000E-01  8.50000000E-01  8.50000000E-01
  8.50000000E-01  8.50000000E-01  8.50000000E-01  8.50000000E-01  8.50000000E-01
  8.50000000E-01  8.50000000E-01  8.50000000E-01  8.50000000E-01  8.50000000E-01
  8.50000000E-01  8.50000000E-01  8.50000000E-01  8.50000000E-01  8.50000000E-01
  8.50000000E-01  8.50000000E-01  8.50000000E-01  8.50000000E-01  8.50000000E-01
  8.50000000E-01  8.50000000E-01  8.50000000E-01  8.50000000E-01  8.50000000E-01
  8.50000000E-01  8.50000000E-01  8.50000000E-01  8.50000000E-01  8.50000000E-01
  8.50000000E-01  8.50000000E-01  8.50000000E-01  8.50000000E-01  8.50000000E-01
  8.50000000E-01  8.50000000E-01  8.50000000E-01  8.50000000E-01  8.50000000E-01
  8.50000000E-01  8.50000000E-01  8.50000000E-01  8.50000000E-01  8.50000000E-01
  8.50000000E-01  8.50000000E-01  8.50000000E-01  8.50000000E-01  8.50000000E-01
  8.50000000E-01  8.50000000E-01  8.50000000E-01  8.50000000E-01  8.50000000E-01
  8.50000000E-01  8.50000000E-01  8.50000000E-01  8.50000000E-01  8.50000000E-01
  8.50000000E-01  8.50000000E-01  8.50000000E-01  8.50000000E-01  8.50000000E-01
  8.50000000E-01  8.50000000E-01  8.50000000E-01  8.50000000E-01  8.50000000E-01
  8.50000000E-01  8.50000000E-01  8.50000000E-01  8.50000000E-01  8.50000000E-01
  8.50000000E-01  8.50000000E-01  8.50000000E-01  8.50000000E-01  8.50000000E-01
  8.50000000E-01  8.50000000E-01  8.50000000E-01  8.50000000E-01  8.50000000E-01
  8.50000000E-01  8.50000000E-01  8.50000000E-01  8.50000000E-01  8.50000000E-01
  8.50000000E-01  8.50000000E-01  8.50000000E-01  8.50000000E-01  8.50000000E-01
  8.50000000E-01  8.50000000E-01  8.50000000E-01  8.50000000E-01  8.50000000E-01
  8.50000000E-01  8.50000000E-01  8.50000000E-01  8.50000000E-01  8.50000000E-01
  8.50000000E-01  8.50000000E-01  8.50000000E-01  8.50000000E-01  8.50000000E-01
  8.50000000E-01  8.50000000E-01  8.50000000E-01  8.50000000E-01  8.50000000E-01
  8.50000000E-01  8.50000000E-01  8.50000000E-01  8.50000000E-01  8.50000000E-01
  8.50000000E-01  8.50000000E-01  8.50000000E-01  8.50000000E-01  8.50000000E-01
  8.50000000E-01  8.50000000E-01  8.50000000E-01  8.50000000E-01  8.50000000E-01
  8.50000000E-01  8.50000000E-01  8.50000000E-01  8.50000000E-01  8.50000000E-01
  8.50000000E-01  8.50000000E-01  8.50000000E-01  8.50000000E-01  8.50000000E-01
  8.50000000E-01  8.50000000E-01  8.50000000E-01  8.50000000E-01  8.50000000E-01
  8.50000000E-01  8.50000000E-01  8.50000000E-01  8.50000000E-01  8.50000000E-01
  8.50000000E-01  8.50000000E-01  8.50000000E-01  8.50000000E-01  8.50000000E-01
  8.50000000E-01  8.50000000E-01  8.50000000E-01  8.50000000E-01  8.50000000E-01
  8.50000000E-01  8.50000000E-01  8.50000000E-01  8.50000000E-01  8.50000000E-01
  8.50000000E-01  8.50000000E-01  8.50000000E-01  8.50000000E-01  8.50000000E-01
  8.50000000E-01  8.50000000E-01  8.50000000E-01  8.50000000E-01  8.50000000E-01
  8.50000000E-01  8.50000000E-01  8.50000000E-01  8.50000000E-01  8.50000000E-01
  8.50000000E-01  8.50000000E-01  8.50000000E-01  8.50000000E-01  8.50000000E-01
  8.50000000E-01  8.50000000E-01  8.50000000E-01  8.50000000E-01  8.50000000E-01
  8.50000000E-01  8.50000000E-01  8.50000000E-01  8.50000000E-01  8.50000000E-01
  8.50000000E-01  8.50000000E-01  8.50000000E-01  8.50000000E-01  8.50000000E-01
  8.50000000E-01  8.50000000E-01  8.50000000E-01  8.50000000E-01  8.50000000E-01
  8.50000000E-01  8.50000000E-01  8.50000000E-01  8.50000000E-01  8.50000000E-01
  8.50000000E-01  8.50000000E-01  8.50000000E-01  8.50000000E-01  8.50000000E-01
  8.50000000E-01  8.50000000E-01  8.50000000E-01  8.50000000E-01  8.50000000E-01
  8.50000000E-01  8.50000000E-01  8.50000000E-01  8.50000000E-01  8.50000000E-01
  8.50000000E-01  8.50000000E-01  8.50000000E-01  8.50000000E-01  8.50000000E-01
  8.50000000E-01  8.50000000E-01  8.50000000E-01  8.50000000E-01  8.50000000E-01
  8.50000000E-01  8.50000000E-01  8.50000000E-01  8.50000000E-01  8.50000000E-01
  8.50000000E-01  8.50000000E-01  8.50000000E-01  8.50000000E-01  8.50000000E-01
  8.50000000E-01  8.50000000E-01  8.50000000E-01  8.50000000E-01  8.50000000E-01
  8.50000000E-01  8.50000000E-01  8.50000000E-01  8.50000000E-01  8.50000000E-01
  8.50000000E-01  8.50000000E-01  8.50000000E-01  8.50000000E-01  8.50000000E-01
  8.50000000E-01  8.50000000E-01  8.50000000E-01  8.50000000E-01  8.50000000E-01
  8.50000000E-01  8.50000000E-01  8.50000000E-01  8.50000000E-01  8.50000000E-01
  8.50000000E-01  8.50000000E-01  8.50000000E-01  8.50000000E-01  8.50000000E-01
  8.50000000E-01  8.50000000E-01  8.50000000E-01  8.50000000E-01  8.50000000E-01
  8.50000000E-01  8.50000000E-01  8.50000000E-01  8.50000000E-01  8.50000000E-01
  8.50000000E-01  8.50000000E-01  8.50000000E-01  8.50000000E-01  8.50000000E-01
  8.50000000E-01  8.50000000E-01  8.50000000E-01  8.50000000E-01  8.50000000E-01
  8.50000000E-01  8.50000000E-01  8.50000000E-01  8.50000000E-01  8.50000000E-01
  8.50000000E-01  8.50000000E-01  8.50000000E-01  8.50000000E-01  8.50000000E-01
  8.50000000E-01  8.50000000E-01  8.50000000E-01  8.50000000E-01  8.50000000E-01
  8.50000000E-01  8.50000000E-01  8.50000000E-01  8.50000000E-01  8.50000000E-01
  8.50000000E-01  8.50000000E-01  8.50000000E-01  8.50000000E-01  8.50000000E-01
  8.50000000E-01  8.50000000E-01  8.50000000E-01  8.50000000E-01  8.50000000E-01
  8.50000000E-01  8.50000000E-01  8.50000000E-01  8.50000000E-01  8.50000000E-01
  8.50000000E-01  8.50000000E-01  8.50000000E-01  8.50000000E-01  8.50000000E-01
  8.50000000E-01  8.50000000E-01  8.50000000E-01  8.50000000E-01  8.50000000E-01
  8.50000000E-01  8.50000000E-01  8.50000000E-01  8.50000000E-01  8.50000000E-01
  8.50000000E-01  8.50000000E-01  8.50000000E-01  8.50000000E-01  8.50000000E-01
  8.50000000E-01  8.50000000E-01  8.50000000E-01  8.50000000E-01  8.50000000E-01
  8.50000000E-01  8.50000000E-01  8.50000000E-01  8.50000000E-01  8.50000000E-01
  8.50000000E-01  8.50000000E-01  8.50000000E-01  8.50000000E-01  8.50000000E-01
  8.50000000E-01  8.50000000E-01  8.50000000E-01  8.50000000E-01  8.50000000E-01
  8.50000000E-01  8.50000000E-01  8.50000000E-01  8.50000000E-01  8.50000000E-01
  8.50000000E-01  8.50000000E-01  8.50000000E-01  8.50000000E-01  8.50000000E-01
  8.50000000E-01  8.50000000E-01  8.50000000E-01  8.50000000E-01  8.50000000E-01
  8.50000000E-01  8.50000000E-01  8.50000000E-01  8.50000000E-01  8.50000000E-01
  8.50000000E-01  8.50000000E-01  8.50000000E-01  8.50000000E-01  8.50000000E-01
  8.50000000E-01  8.50000000E-01  8.50000000E-01  8.50000000E-01  8.50000000E-01
  8.50000000E-01  8.50000000E-01  8.50000000E-01  8.50000000E-01  8.50000000E-01
  8.50000000E-01  8.50000000E-01  8.50000000E-01  8.50000000E-01  8.50000000E-01
  8.50000000E-01  8.50000000E-01  8.50000000E-01  8.50000000E-01  8.50000000E-01
  8.50000000E-01  8.50000000E-01  8.50000000E-01  8.50000000E-01  8.50000000E-01
  8.50000000E-01  8.50000000E-01  8.50000000E-01  8.50000000E-01  8.50000000E-01
  8.50000000E-01  8.50000000E-01  8.50000000E-01  8.50000000E-01  8.50000000E-01
  8.50000000E-01  8.50000000E-01  8.50000000E-01  8.50000000E-01  8.50000000E-01
  8.50000000E-01  8.50000000E-01  8.50000000E-01  8.50000000E-01  8.50000000E-01
  8.50000000E-01  8.50000000E-01  8.50000000E-01  8.50000000E-01  8.50000000E-01
  8.50000000E-01  8.50000000E-01  8.50000000E-01  8.50000000E-01  8.50000000E-01
  8.50000000E-01  8.50000000E-01  8.50000000E-01  8.50000000E-01  8.50000000E-01
  8.50000000E-01  8.50000000E-01  8.50000000E-01  8.50000000E-01  8.50000000E-01
  8.50000000E-01  8.50000000E-01  8.50000000E-01  8.50000000E-01  8.50000000E-01
  8.50000000E-01  8.50000000E-01  8.50000000E-01  8.50000000E-01  8.50000000E-01
  8.50000000E-01  8.50000000E-01  8.50000000E-01  8.50000000E-01  8.50000000E-01
  8.50000000E-01  8.50000000E-01  8.50000000E-01  8.50000000E-01  8.50000000E-01
  8.50000000E-01  8.50000000E-01  8.50000000E-01  8.50000000E-01  8.50000000E-01
  8.50000000E-01  8.50000000E-01  8.50000000E-01  8.50000000E-01  8.50000000E-01
  8.50000000E-01  8.50000000E-01  8.50000000E-01  8.50000000E-01  8.50000000E-01
  8.50000000E-01  8.50000000E-01  8.50000000E-01  8.50000000E-01  8.50000000E-01
  8.50000000E-01  8.50000000E-01  8.50000000E-01  8.50000000E-01  8.50000000E-01
  8.50000000E-01  8.50000000E-01  8.50000000E-01  8.50000000E-01  8.50000000E-01
  8.50000000E-01  8.50000000E-01  8.50000000E-01  8.50000000E-01  8.50000000E-01
  8.50000000E-01  8.50000000E-01  8.50000000E-01  8.50000000E-01  8.50000000E-01
  8.50000000E-01  8.50000000E-01  8.50000000E-01  8.50000000E-01  8.50000000E-01
  8.50000000E-01  8.50000000E-01  8.50000000E-01  8.50000000E-01  8.50000000E-01
  8.50000000E-01  8.50000000E-01  8.50000000E-01  8.50000000E-01  8.50000000E-01
  8.50000000E-01  8.50000000E-01  8.50000000E-01  8.50000000E-01  8.50000000E-01
  8.50000000E-01  8.50000000E-01  8.50000000E-01  8.50000000E-01  8.50000000E-01
  8.50000000E-01  8.50000000E-01  8.50000000E-01  8.50000000E-01  8.50000000E-01
  8.50000000E-01  8.50000000E-01  8.50000000E-01  8.50000000E-01  8.50000000E-01
  8.50000000E-01  8.50000000E-01  8.50000000E-01  8.50000000E-01  8.50000000E-01
  8.50000000E-01  8.50000000E-01  8.50000000E-01  8.50000000E-01  8.50000000E-01
  8.50000000E-01  8.50000000E-01  8.50000000E-01  8.50000000E-01  8.50000000E-01
  8.50000000E-01  8.50000000E-01  8.50000000E-01  8.50000000E-01  8.50000000E-01
  8.50000000E-01  8.50000000E-01  8.50000000E-01  8.50000000E-01  8.50000000E-01
  8.50000000E-01  8.50000000E-01  8.50000000E-01  8.50000000E-01  8.50000000E-01
  8.50000000E-01  8.50000000E-01  8.50000000E-01  8.50000000E-01  8.50000000E-01
  8.50000000E-01  8.50000000E-01  8.50000000E-01  8.50000000E-01  8.50000000E-01
  8.50000000E-01  8.50000000E-01  8.50000000E-01  8.50000000E-01  8.50000000E-01
  8.50000000E-01  8.50000000E-01  8.50000000E-01  8.50000000E-01  8.50000000E-01
  8.50000000E-01  8.50000000E-01  8.50000000E-01  8.50000000E-01  8.50000000E-01
  8.50000000E-01  8.50000000E-01  8.50000000E-01  8.50000000E-01  8.50000000E-01
  8.50000000E-01  8.50000000E-01  8.50000000E-01  8.50000000E-01  8.50000000E-01
  8.50000000E-01  8.50000000E-01  8.50000000E-01  8.50000000E-01  8.50000000E-01
  8.50000000E-01  8.50000000E-01  8.50000000E-01  8.50000000E-01  8.50000000E-01
  8.50000000E-01  8.50000000E-01  8.50000000E-01  8.50000000E-01  8.50000000E-01
  8.50000000E-01  8.50000000E-01  8.50000000E-01  8.50000000E-01  8.50000000E-01
  8.50000000E-01  8.50000000E-01  8.50000000E-01  8.50000000E-01  8.50000000E-01
  8.50000000E-01  8.50000000E-01  8.50000000E-01  8.50000000E-01  8.50000000E-01
  8.50000000E-01  8.50000000E-01  8.50000000E-01  8.50000000E-01  8.50000000E-01
  8.50000000E-01  8.50000000E-01  8.50000000E-01  8.50000000E-01  8.50000000E-01
  8.50000000E-01  8.50000000E-01  8.50000000E-01  8.50000000E-01  8.50000000E-01
  8.50000000E-01  8.50000000E-01  8.50000000E-01  8.50000000E-01  8.50000000E-01
  8.50000000E-01  8.50000000E-01  8.50000000E-01  8.50000000E-01  8.50000000E-01
  8.50000000E-01  8.50000000E-01  8.50000000E-01  8.50000000E-01  8.50000000E-01
  8.50000000E-01  8.50000000E-01  8.50000000E-01  8.50000000E-01  8.50000000E-01
  8.50000000E-01  8.50000000E-01  8.50000000E-01  8.50000000E-01  8.50000000E-01
  8.50000000E-01  8.50000000E-01  8.50000000E-01  8.50000000E-01  8.50000000E-01
  8.50000000E-01  8.50000000E-01  8.50000000E-01  8.50000000E-01  8.50000000E-01
  8.50000000E-01  8.50000000E-01  8.50000000E-01  8.50000000E-01  8.50000000E-01
  8.50000000E-01  8.50000000E-01  8.50000000E-01  8.50000000E-01  8.50000000E-01
  8.50000000E-01  8.50000000E-01  8.50000000E-01  8.50000000E-01  8.50000000E-01
  8.50000000E-01  8.50000000E-01  8.50000000E-01  8.50000000E-01  8.50000000E-01
  8.50000000E-01  8.50000000E-01  8.50000000E-01  8.50000000E-01  8.50000000E-01
  8.50000000E-01  8.50000000E-01  8.50000000E-01  8.50000000E-01  8.50000000E-01
  8.50000000E-01  8.50000000E-01  8.50000000E-01  8.50000000E-01  8.50000000E-01
  8.50000000E-01  8.50000000E-01  8.50000000E-01  8.50000000E-01  8.50000000E-01
  8.50000000E-01  8.50000000E-01  8.50000000E-01  8.50000000E-01  8.50000000E-01
  8.50000000E-01  8.50000000E-01  8.50000000E-01  8.50000000E-01  8.50000000E-01
  8.50000000E-01  8.50000000E-01  8.50000000E-01  8.50000000E-01  8.50000000E-01
  8.50000000E-01  8.50000000E-01  8.50000000E-01  8.50000000E-01  8.50000000E-01
  8.50000000E-01  8.50000000E-01  8.50000000E-01  8.50000000E-01  8.50000000E-01
  8.50000000E-01  8.50000000E-01  8.50000000E-01  8.50000000E-01  8.50000000E-01
  8.50000000E-01  8.50000000E-01  8.50000000E-01  8.50000000E-01  8.50000000E-01
  8.50000000E-01  8.50000000E-01  8.50000000E-01  8.50000000E-01  8.50000000E-01
  8.50000000E-01  8.50000000E-01  8.50000000E-01  8.50000000E-01  8.50000000E-01
  8.50000000E-01  8.50000000E-01  8.50000000E-01  8.50000000E-01  8.50000000E-01
  8.50000000E-01  8.50000000E-01  8.50000000E-01  8.50000000E-01  8.50000000E-01
  8.50000000E-01  8.50000000E-01  8.50000000E-01  8.50000000E-01  8.50000000E-01
  8.50000000E-01  8.50000000E-01  8.50000000E-01  8.50000000E-01  8.50000000E-01
  8.50000000E-01  8.50000000E-01  8.50000000E-01  8.50000000E-01  8.50000000E-01
  8.50000000E-01  8.50000000E-01  8.50000000E-01  8.50000000E-01  8.50000000E-01
  8.50000000E-01  8.50000000E-01  8.50000000E-01  8.50000000E-01  8.50000000E-01
  8.50000000E-01  8.50000000E-01  8.50000000E-01  8.50000000E-01  8.50000000E-01
  8.50000000E-01  8.50000000E-01  8.50000000E-01  8.50000000E-01  8.50000000E-01
  8.50000000E-01  8.50000000E-01  8.50000000E-01  8.50000000E-01  8.50000000E-01
  8.50000000E-01  8.50000000E-01  8.50000000E-01  8.50000000E-01  8.50000000E-01
  8.50000000E-01  8.50000000E-01  8.50000000E-01  8.50000000E-01  8.50000000E-01
  8.50000000E-01  8.50000000E-01  8.50000000E-01  8.50000000E-01  8.50000000E-01
  8.50000000E-01  8.50000000E-01  8.50000000E-01  8.50000000E-01  8.50000000E-01
  8.50000000E-01  8.50000000E-01  8.50000000E-01  8.50000000E-01  8.50000000E-01
  8.50000000E-01  8.50000000E-01  8.50000000E-01  8.50000000E-01  8.50000000E-01
  8.50000000E-01  8.50000000E-01  8.50000000E-01  8.50000000E-01  8.50000000E-01
  8.50000000E-01  8.50000000E-01  8.50000000E-01  8.50000000E-01  8.50000000E-01
  8.50000000E-01  8.50000000E-01  8.50000000E-01  8.50000000E-01  8.50000000E-01
  8.50000000E-01  8.50000000E-01  8.50000000E-01  8.50000000E-01  8.50000000E-01
  8.50000000E-01  8.50000000E-01  8.50000000E-01  8.50000000E-01  8.50000000E-01
  8.50000000E-01  8.50000000E-01  8.50000000E-01  8.50000000E-01  8.50000000E-01
  8.50000000E-01  8.50000000E-01  8.50000000E-01  8.50000000E-01  8.50000000E-01
  8.50000000E-01  8.50000000E-01  8.50000000E-01  8.50000000E-01  8.50000000E-01
  8.50000000E-01  8.50000000E-01  8.50000000E-01  8.50000000E-01  8.50000000E-01
  8.50000000E-01  8.50000000E-01  8.50000000E-01  8.50000000E-01  8.50000000E-01
  8.50000000E-01  8.50000000E-01  8.50000000E-01  8.50000000E-01  8.50000000E-01
  8.50000000E-01  8.50000000E-01  8.50000000E-01  8.50000000E-01  8.50000000E-01
  8.50000000E-01  8.50000000E-01  8.50000000E-01  8.50000000E-01  8.50000000E-01
  8.50000000E-01  8.50000000E-01  8.50000000E-01  8.50000000E-01  8.50000000E-01
  8.50000000E-01  8.50000000E-01  8.50000000E-01  8.50000000E-01  8.50000000E-01
  8.50000000E-01  8.50000000E-01  8.50000000E-01  8.50000000E-01  8.50000000E-01
  8.50000000E-01  8.50000000E-01  8.50000000E-01  8.50000000E-01  8.50000000E-01
  8.50000000E-01  8.50000000E-01  8.50000000E-01  8.50000000E-01  8.50000000E-01
  8.50000000E-01  8.50000000E-01  8.50000000E-01  8.50000000E-01  8.50000000E-01
  8.50000000E-01  8.50000000E-01  8.50000000E-01  8.50000000E-01  8.50000000E-01
  8.50000000E-01  8.50000000E-01  8.50000000E-01  8.50000000E-01  8.50000000E-01
  8.50000000E-01  8.50000000E-01  8.50000000E-01  8.50000000E-01  8.50000000E-01
  8.50000000E-01  8.50000000E-01  8.50000000E-01  8.50000000E-01  8.50000000E-01
  8.50000000E-01  8.50000000E-01  8.50000000E-01  8.50000000E-01  8.50000000E-01
  8.50000000E-01  8.50000000E-01  8.50000000E-01  8.50000000E-01  8.50000000E-01
  8.50000000E-01  8.50000000E-01  8.50000000E-01  8.50000000E-01  8.50000000E-01
  8.50000000E-01  8.50000000E-01  8.50000000E-01  8.50000000E-01  8.50000000E-01
  8.50000000E-01  8.50000000E-01  8.50000000E-01  8.50000000E-01  8.50000000E-01
  8.50000000E-01  8.50000000E-01  8.50000000E-01  8.50000000E-01  8.50000000E-01
  8.50000000E-01  8.50000000E-01  8.50000000E-01  8.50000000E-01  8.50000000E-01
  8.50000000E-01  8.50000000E-01  8.50000000E-01  8.50000000E-01  8.50000000E-01
  8.50000000E-01  8.50000000E-01  8.50000000E-01  8.50000000E-01  8.50000000E-01
  8.50000000E-01  8.50000000E-01  8.50000000E-01  8.50000000E-01  8.50000000E-01
  8.50000000E-01  8.50000000E-01  8.50000000E-01  8.50000000E-01  8.50000000E-01
  8.50000000E-01  8.50000000E-01  8.50000000E-01  8.50000000E-01  8.50000000E-01
  8.50000000E-01  8.50000000E-01  8.50000000E-01  8.50000000E-01  8.50000000E-01
  8.50000000E-01  8.50000000E-01  8.50000000E-01  8.50000000E-01  8.50000000E-01
  8.50000000E-01  8.50000000E-01  8.50000000E-01  8.50000000E-01  8.50000000E-01
  8.50000000E-01  8.50000000E-01  8.50000000E-01  8.50000000E-01  8.50000000E-01
  8.50000000E-01  8.50000000E-01  8.50000000E-01  8.50000000E-01  8.50000000E-01
  8.50000000E-01  8.50000000E-01  8.50000000E-01  8.50000000E-01  8.50000000E-01
  8.50000000E-01  8.50000000E-01  8.50000000E-01  8.50000000E-01  8.50000000E-01
  8.50000000E-01  8.50000000E-01  8.50000000E-01  8.50000000E-01  8.50000000E-01
  8.50000000E-01  8.50000000E-01  8.50000000E-01  8.50000000E-01  8.50000000E-01
  8.50000000E-01  8.50000000E-01  8.50000000E-01  8.50000000E-01  8.50000000E-01
  8.50000000E-01  8.50000000E-01  8.50000000E-01  8.50000000E-01  8.50000000E-01
  8.50000000E-01  8.50000000E-01  8.50000000E-01  8.50000000E-01  8.50000000E-01
  8.50000000E-01  8.50000000E-01  8.50000000E-01  8.50000000E-01  8.50000000E-01
  8.50000000E-01  8.50000000E-01  8.50000000E-01  8.50000000E-01  8.50000000E-01
  8.50000000E-01  8.50000000E-01  8.50000000E-01  8.50000000E-01  8.50000000E-01
  8.50000000E-01  8.50000000E-01  8.50000000E-01  8.50000000E-01  8.50000000E-01
  8.50000000E-01  8.50000000E-01  8.50000000E-01  8.50000000E-01  8.50000000E-01
  8.50000000E-01  8.50000000E-01  8.50000000E-01  8.50000000E-01  8.50000000E-01
  8.50000000E-01  8.50000000E-01  8.50000000E-01  8.50000000E-01  8.50000000E-01
  8.50000000E-01  8.50000000E-01  8.50000000E-01  8.50000000E-01  8.50000000E-01
  8.50000000E-01  8.50000000E-01  8.50000000E-01  8.50000000E-01  8.50000000E-01
  8.50000000E-01  8.50000000E-01  8.50000000E-01  8.50000000E-01  8.50000000E-01
  8.50000000E-01  8.50000000E-01  8.50000000E-01  8.50000000E-01  8.50000000E-01
  8.50000000E-01  8.50000000E-01  8.50000000E-01  8.50000000E-01  8.50000000E-01
  8.50000000E-01  8.50000000E-01  8.50000000E-01  8.50000000E-01  8.50000000E-01
  8.50000000E-01  8.50000000E-01  8.50000000E-01  8.50000000E-01  8.50000000E-01
  8.50000000E-01  8.50000000E-01  8.50000000E-01  8.50000000E-01  8.50000000E-01
  8.50000000E-01  8.50000000E-01  8.50000000E-01  8.50000000E-01  8.50000000E-01
  8.50000000E-01  8.50000000E-01  8.50000000E-01  8.50000000E-01  8.50000000E-01
  8.50000000E-01  8.50000000E-01  8.50000000E-01  8.50000000E-01  8.50000000E-01
  8.50000000E-01  8.50000000E-01  8.50000000E-01  8.50000000E-01  8.50000000E-01
  8.50000000E-01  8.50000000E-01  8.50000000E-01  8.50000000E-01  8.50000000E-01
  8.50000000E-01  8.50000000E-01  8.50000000E-01  8.50000000E-01  8.50000000E-01
  8.50000000E-01  8.50000000E-01  8.50000000E-01  8.50000000E-01  8.50000000E-01
  8.50000000E-01  8.50000000E-01  8.50000000E-01  8.50000000E-01  8.50000000E-01
  8.50000000E-01  8.50000000E-01  8.50000000E-01  8.50000000E-01  8.50000000E-01
  8.50000000E-01  8.50000000E-01  8.50000000E-01  8.50000000E-01  8.50000000E-01
  8.50000000E-01  8.50000000E-01  8.50000000E-01  8.50000000E-01  8.50000000E-01
  8.50000000E-01  8.50000000E-01  8.50000000E-01  8.50000000E-01  8.50000000E-01
  8.50000000E-01  8.50000000E-01  8.50000000E-01  8.50000000E-01  8.50000000E-01
  8.50000000E-01  8.50000000E-01  8.50000000E-01  8.50000000E-01  8.50000000E-01
  8.50000000E-01  8.50000000E-01  8.50000000E-01  8.50000000E-01  8.50000000E-01
  8.50000000E-01  8.50000000E-01  8.50000000E-01  8.50000000E-01  8.50000000E-01
  8.50000000E-01  8.50000000E-01  8.50000000E-01  8.50000000E-01  8.50000000E-01
  8.50000000E-01  8.50000000E-01  8.50000000E-01  8.50000000E-01  8.50000000E-01
  8.50000000E-01  8.50000000E-01  8.50000000E-01  8.50000000E-01  8.50000000E-01
  8.50000000E-01  8.50000000E-01  8.50000000E-01  8.50000000E-01  8.50000000E-01
  8.50000000E-01  8.50000000E-01  8.50000000E-01  8.50000000E-01  8.50000000E-01
  8.50000000E-01  8.50000000E-01  8.50000000E-01  8.50000000E-01  8.50000000E-01
  8.50000000E-01  8.50000000E-01  8.50000000E-01  8.50000000E-01  8.50000000E-01
  8.50000000E-01  8.50000000E-01  8.50000000E-01  8.50000000E-01  8.50000000E-01
  8.50000000E-01  8.50000000E-01  8.50000000E-01  8.50000000E-01  8.50000000E-01
  8.50000000E-01  8.50000000E-01  8.50000000E-01  8.50000000E-01  8.50000000E-01
  8.50000000E-01  8.50000000E-01  8.50000000E-01  8.50000000E-01  8.50000000E-01
  8.50000000E-01  8.50000000E-01  8.50000000E-01  8.50000000E-01  8.50000000E-01
  8.50000000E-01  8.50000000E-01  8.50000000E-01  8.50000000E-01  8.50000000E-01
  8.50000000E-01  8.50000000E-01  8.50000000E-01  8.50000000E-01  8.50000000E-01
  8.50000000E-01  8.50000000E-01  8.50000000E-01  8.50000000E-01  8.50000000E-01
  8.50000000E-01  8.50000000E-01  8.50000000E-01  8.50000000E-01  8.50000000E-01
  8.50000000E-01  8.50000000E-01  8.50000000E-01  8.50000000E-01  8.50000000E-01
  8.50000000E-01  8.50000000E-01  8.50000000E-01  8.50000000E-01  8.50000000E-01
  8.50000000E-01  8.50000000E-01  8.50000000E-01  8.50000000E-01  8.50000000E-01
  8.50000000E-01  8.50000000E-01  8.50000000E-01  8.50000000E-01  8.50000000E-01
  8.50000000E-01  8.50000000E-01  8.50000000E-01  8.50000000E-01  8.50000000E-01
  8.50000000E-01  8.50000000E-01  8.50000000E-01  8.50000000E-01  8.50000000E-01
  8.50000000E-01  8.50000000E-01  8.50000000E-01  8.50000000E-01  8.50000000E-01
  8.50000000E-01  8.50000000E-01  8.50000000E-01  8.50000000E-01  8.50000000E-01
  8.50000000E-01  8.50000000E-01  8.50000000E-01  8.50000000E-01  8.50000000E-01
  8.50000000E-01  8.50000000E-01  8.50000000E-01  8.50000000E-01  8.50000000E-01
  8.50000000E-01  8.50000000E-01  8.50000000E-01  8.50000000E-01  8.50000000E-01
  8.50000000E-01  8.50000000E-01  8.50000000E-01  8.50000000E-01  8.50000000E-01
  8.50000000E-01  8.50000000E-01  8.50000000E-01  8.50000000E-01  8.50000000E-01
  8.50000000E-01  8.50000000E-01  8.50000000E-01  8.50000000E-01  8.50000000E-01
  8.50000000E-01  8.50000000E-01  8.50000000E-01  8.50000000E-01  8.50000000E-01
  8.50000000E-01  8.50000000E-01  8.50000000E-01  8.50000000E-01  8.50000000E-01
  8.50000000E-01  8.50000000E-01  8.50000000E-01  8.50000000E-01  8.50000000E-01
  8.50000000E-01  8.50000000E-01  8.50000000E-01  8.50000000E-01  8.50000000E-01
  8.50000000E-01  8.50000000E-01  8.50000000E-01  8.50000000E-01  8.50000000E-01
  8.50000000E-01  8.50000000E-01  8.50000000E-01  8.50000000E-01  8.50000000E-01
  8.50000000E-01  8.50000000E-01  8.50000000E-01  8.50000000E-01  8.50000000E-01
  8.50000000E-01  8.50000000E-01  8.50000000E-01  8.50000000E-01  8.50000000E-01
  8.50000000E-01  8.50000000E-01  8.50000000E-01  8.50000000E-01  8.50000000E-01
  8.50000000E-01  8.50000000E-01  8.50000000E-01  8.50000000E-01  8.50000000E-01
  8.50000000E-01  8.50000000E-01  8.50000000E-01  8.50000000E-01  8.50000000E-01
  8.50000000E-01  8.50000000E-01  8.50000000E-01  8.50000000E-01  8.50000000E-01
  8.50000000E-01  8.50000000E-01  8.50000000E-01  8.50000000E-01  8.50000000E-01
  8.50000000E-01  8.50000000E-01  8.50000000E-01  8.50000000E-01  8.50000000E-01
  8.50000000E-01  8.50000000E-01  8.50000000E-01  8.50000000E-01  8.50000000E-01
  8.50000000E-01  8.50000000E-01  8.50000000E-01  8.50000000E-01  8.50000000E-01
  8.50000000E-01  8.50000000E-01  8.50000000E-01  8.50000000E-01  8.50000000E-01
  8.50000000E-01  8.50000000E-01  8.50000000E-01  8.50000000E-01  8.50000000E-01
  8.50000000E-01  8.50000000E-01  8.50000000E-01  8.50000000E-01  8.50000000E-01
  8.50000000E-01  8.50000000E-01  8.50000000E-01  8.50000000E-01  8.50000000E-01
  8.50000000E-01  8.50000000E-01  8.50000000E-01  8.50000000E-01  8.50000000E-01
  8.50000000E-01  8.50000000E-01  8.50000000E-01  8.50000000E-01  8.50000000E-01
  8.50000000E-01  8.50000000E-01  8.50000000E-01  8.50000000E-01  8.50000000E-01
  8.50000000E-01  8.50000000E-01  8.50000000E-01  8.50000000E-01  8.50000000E-01
  8.50000000E-01  8.50000000E-01  8.50000000E-01  8.50000000E-01  8.50000000E-01
  8.50000000E-01  8.50000000E-01  8.50000000E-01  8.50000000E-01  8.50000000E-01
  8.50000000E-01  8.50000000E-01  8.50000000E-01  8.50000000E-01  8.50000000E-01
  8.50000000E-01  8.50000000E-01  8.50000000E-01  8.50000000E-01  8.50000000E-01
  8.50000000E-01  8.50000000E-01  8.50000000E-01  8.50000000E-01  8.50000000E-01
  8.50000000E-01  8.50000000E-01  8.50000000E-01  8.50000000E-01  8.50000000E-01
  8.50000000E-01  8.50000000E-01  8.50000000E-01  8.50000000E-01  8.50000000E-01
  8.50000000E-01  8.50000000E-01  8.50000000E-01  8.50000000E-01  8.50000000E-01
  8.50000000E-01  8.50000000E-01  8.50000000E-01  8.50000000E-01  8.50000000E-01
  8.50000000E-01  8.50000000E-01  8.50000000E-01  8.50000000E-01  8.50000000E-01
  8.50000000E-01  8.50000000E-01  8.50000000E-01  8.50000000E-01  8.50000000E-01
  8.50000000E-01  8.50000000E-01  8.50000000E-01  8.50000000E-01  8.50000000E-01
  8.50000000E-01  8.50000000E-01  8.50000000E-01  8.50000000E-01  8.50000000E-01
  8.50000000E-01  8.50000000E-01  8.50000000E-01  8.50000000E-01  8.50000000E-01
  8.50000000E-01  8.50000000E-01  8.50000000E-01  8.50000000E-01  8.50000000E-01
  8.50000000E-01  8.50000000E-01  8.50000000E-01  8.50000000E-01  8.50000000E-01
  8.50000000E-01  8.50000000E-01  8.50000000E-01  8.50000000E-01  8.50000000E-01
  8.50000000E-01  8.50000000E-01  8.50000000E-01  8.50000000E-01  8.50000000E-01
  8.50000000E-01  8.50000000E-01  8.50000000E-01  8.50000000E-01  8.50000000E-01
  8.50000000E-01  8.50000000E-01  8.50000000E-01  8.50000000E-01  8.50000000E-01
  8.50000000E-01  8.50000000E-01  8.50000000E-01  8.50000000E-01  8.50000000E-01
  8.50000000E-01  8.50000000E-01  8.50000000E-01  8.50000000E-01  8.50000000E-01
  8.50000000E-01  8.50000000E-01  8.50000000E-01  8.50000000E-01  8.50000000E-01
  8.50000000E-01  8.50000000E-01  8.50000000E-01  8.50000000E-01  8.50000000E-01
  8.50000000E-01  8.50000000E-01  8.50000000E-01  8.50000000E-01  8.50000000E-01
  8.50000000E-01  8.50000000E-01  8.50000000E-01  8.50000000E-01  8.50000000E-01
  8.50000000E-01  8.50000000E-01  8.50000000E-01  8.50000000E-01  8.50000000E-01
  8.50000000E-01  8.50000000E-01  8.50000000E-01  8.50000000E-01  8.50000000E-01
  8.50000000E-01  8.50000000E-01  8.50000000E-01  8.50000000E-01  8.50000000E-01
  8.50000000E-01  8.50000000E-01  8.50000000E-01  8.50000000E-01  8.50000000E-01
  8.50000000E-01  8.50000000E-01  8.50000000E-01  8.50000000E-01  8.50000000E-01
  8.50000000E-01  8.50000000E-01  8.50000000E-01  8.50000000E-01  8.50000000E-01
  8.50000000E-01  8.50000000E-01  8.50000000E-01  8.50000000E-01  8.50000000E-01
  8.50000000E-01  8.50000000E-01  8.50000000E-01  8.50000000E-01  8.50000000E-01
  8.50000000E-01  8.50000000E-01  8.50000000E-01  8.50000000E-01  8.50000000E-01
  8.50000000E-01  8.50000000E-01  8.50000000E-01  8.50000000E-01  8.50000000E-01
  8.50000000E-01  8.50000000E-01  8.50000000E-01  8.50000000E-01  8.50000000E-01
  8.50000000E-01  8.50000000E-01  8.50000000E-01  8.50000000E-01  8.50000000E-01
  8.50000000E-01  8.50000000E-01  8.50000000E-01  8.50000000E-01  8.50000000E-01
  8.50000000E-01  8.50000000E-01  8.50000000E-01  8.50000000E-01  8.50000000E-01
  8.50000000E-01  8.50000000E-01  8.50000000E-01  8.50000000E-01  8.50000000E-01
  8.50000000E-01  8.50000000E-01  8.50000000E-01  8.50000000E-01  8.50000000E-01
  8.50000000E-01  8.50000000E-01  8.50000000E-01  8.50000000E-01  8.50000000E-01
  8.50000000E-01  8.50000000E-01  8.50000000E-01  8.50000000E-01  8.50000000E-01
  8.50000000E-01  8.50000000E-01  8.50000000E-01  8.50000000E-01  8.50000000E-01
  8.50000000E-01  8.50000000E-01  8.50000000E-01  8.50000000E-01  8.50000000E-01
  8.50000000E-01  8.50000000E-01  8.50000000E-01  8.50000000E-01  8.50000000E-01
  8.50000000E-01  8.50000000E-01  8.50000000E-01  8.50000000E-01  8.50000000E-01
  8.50000000E-01  8.50000000E-01  8.50000000E-01  8.50000000E-01  8.50000000E-01
  8.50000000E-01  8.50000000E-01  8.50000000E-01  8.50000000E-01  8.50000000E-01
  8.50000000E-01  8.50000000E-01  8.50000000E-01  8.50000000E-01  8.50000000E-01
  8.50000000E-01  8.50000000E-01  8.50000000E-01  8.50000000E-01  8.50000000E-01
  8.50000000E-01  8.50000000E-01  8.50000000E-01  8.50000000E-01  8.50000000E-01
  8.50000000E-01  8.50000000E-01  8.50000000E-01  8.50000000E-01  8.50000000E-01
  8.50000000E-01  8.50000000E-01  8.50000000E-01  8.50000000E-01  8.50000000E-01
  8.50000000E-01  8.50000000E-01  8.50000000E-01  8.50000000E-01  8.50000000E-01
  8.50000000E-01  8.50000000E-01  8.50000000E-01  8.50000000E-01  8.50000000E-01
  8.50000000E-01  8.50000000E-01  8.50000000E-01  8.50000000E-01  8.50000000E-01
  8.50000000E-01  8.50000000E-01  8.50000000E-01  8.50000000E-01  8.50000000E-01
  8.50000000E-01  8.50000000E-01  8.50000000E-01  8.50000000E-01  8.50000000E-01
  8.50000000E-01  8.50000000E-01  8.50000000E-01  8.50000000E-01  8.50000000E-01
  8.50000000E-01  8.50000000E-01  8.50000000E-01  8.50000000E-01  8.50000000E-01
  8.50000000E-01  8.50000000E-01  8.50000000E-01  8.50000000E-01  8.50000000E-01
  8.50000000E-01  8.50000000E-01  8.50000000E-01  8.50000000E-01  8.50000000E-01
  8.50000000E-01  8.50000000E-01  8.50000000E-01  8.50000000E-01  8.50000000E-01
  8.50000000E-01  8.50000000E-01  8.50000000E-01  8.50000000E-01  8.50000000E-01
  8.50000000E-01  8.50000000E-01  8.50000000E-01  8.50000000E-01  8.50000000E-01
  8.50000000E-01  8.50000000E-01  8.50000000E-01  8.50000000E-01  8.50000000E-01
  8.50000000E-01  8.50000000E-01  8.50000000E-01  8.50000000E-01  8.50000000E-01
  8.50000000E-01  8.50000000E-01  8.50000000E-01  8.50000000E-01  8.50000000E-01
  8.50000000E-01  8.50000000E-01  8.50000000E-01  8.50000000E-01  8.50000000E-01
  8.50000000E-01  8.50000000E-01  8.50000000E-01  8.50000000E-01  8.50000000E-01
  8.50000000E-01  8.50000000E-01  8.50000000E-01  8.50000000E-01  8.50000000E-01
  8.50000000E-01  8.50000000E-01  8.50000000E-01  8.50000000E-01  8.50000000E-01
  8.50000000E-01  8.50000000E-01  8.50000000E-01  8.50000000E-01  8.50000000E-01
  8.50000000E-01  8.50000000E-01  8.50000000E-01  8.50000000E-01  8.50000000E-01
  8.50000000E-01  8.50000000E-01  8.50000000E-01  8.50000000E-01  8.50000000E-01
  8.50000000E-01  8.50000000E-01  8.50000000E-01  8.50000000E-01  8.50000000E-01
  8.50000000E-01  8.50000000E-01  8.50000000E-01  8.50000000E-01  8.50000000E-01
  8.50000000E-01  8.50000000E-01  8.50000000E-01  8.50000000E-01  8.50000000E-01
  8.50000000E-01  8.50000000E-01  8.50000000E-01  8.50000000E-01  8.50000000E-01
  8.50000000E-01  8.50000000E-01  8.50000000E-01  8.50000000E-01  8.50000000E-01
  8.50000000E-01  8.50000000E-01  8.50000000E-01  8.50000000E-01  8.50000000E-01
  8.50000000E-01  8.50000000E-01  8.50000000E-01  8.50000000E-01  8.50000000E-01
  8.50000000E-01  8.50000000E-01  8.50000000E-01  8.50000000E-01  8.50000000E-01
  8.50000000E-01  8.50000000E-01  8.50000000E-01  8.50000000E-01  8.50000000E-01
  8.50000000E-01  8.50000000E-01  8.50000000E-01  8.50000000E-01  8.50000000E-01
  8.50000000E-01  8.50000000E-01  8.50000000E-01  8.50000000E-01  8.50000000E-01
  8.50000000E-01  8.50000000E-01  8.50000000E-01  8.50000000E-01  8.50000000E-01
  8.50000000E-01  8.50000000E-01  8.50000000E-01  8.50000000E-01  8.50000000E-01
  8.50000000E-01  8.50000000E-01  8.50000000E-01  8.50000000E-01  8.50000000E-01
  8.50000000E-01  8.50000000E-01  8.50000000E-01  8.50000000E-01  8.50000000E-01
  8.50000000E-01  8.50000000E-01  8.50000000E-01  8.50000000E-01  8.50000000E-01
  8.50000000E-01  8.50000000E-01  8.50000000E-01  8.50000000E-01  8.50000000E-01
  8.50000000E-01  8.50000000E-01  8.50000000E-01  8.50000000E-01  8.50000000E-01
  8.50000000E-01  8.50000000E-01  8.50000000E-01  8.50000000E-01  8.50000000E-01
  8.50000000E-01  8.50000000E-01  8.50000000E-01  8.50000000E-01  8.50000000E-01
  8.50000000E-01  8.50000000E-01  8.50000000E-01  8.50000000E-01  8.50000000E-01
  8.50000000E-01  8.50000000E-01  8.50000000E-01  8.50000000E-01  8.50000000E-01
  8.50000000E-01  8.50000000E-01  8.50000000E-01  8.50000000E-01  8.50000000E-01
  8.50000000E-01  8.50000000E-01  8.50000000E-01  8.50000000E-01  8.50000000E-01
  8.50000000E-01  8.50000000E-01  8.50000000E-01  8.50000000E-01  8.50000000E-01
  8.50000000E-01  8.50000000E-01  8.50000000E-01  8.50000000E-01  8.50000000E-01
  8.50000000E-01  8.50000000E-01  8.50000000E-01  8.50000000E-01  8.50000000E-01
  8.50000000E-01  8.50000000E-01  8.50000000E-01  8.50000000E-01  8.50000000E-01
  8.50000000E-01  8.50000000E-01  8.50000000E-01  8.50000000E-01  8.50000000E-01
  8.50000000E-01  8.50000000E-01  8.50000000E-01  8.50000000E-01  8.50000000E-01
  8.50000000E-01  8.50000000E-01  8.50000000E-01  8.50000000E-01  8.50000000E-01
  8.50000000E-01  8.50000000E-01  8.50000000E-01  8.50000000E-01  8.50000000E-01
  8.50000000E-01  8.50000000E-01  8.50000000E-01  8.50000000E-01  8.50000000E-01
  8.50000000E-01  8.50000000E-01  8.50000000E-01  8.50000000E-01  8.50000000E-01
  8.50000000E-01  8.50000000E-01  8.50000000E-01  8.50000000E-01  8.50000000E-01
  8.50000000E-01  8.50000000E-01  8.50000000E-01  8.50000000E-01  8.50000000E-01
  8.50000000E-01  8.50000000E-01  8.50000000E-01  8.50000000E-01  8.50000000E-01
  8.50000000E-01  8.50000000E-01  8.50000000E-01  8.50000000E-01  8.50000000E-01
  8.50000000E-01  8.50000000E-01  8.50000000E-01  8.50000000E-01  8.50000000E-01
  8.50000000E-01  8.50000000E-01  8.50000000E-01  8.50000000E-01  8.50000000E-01
  8.50000000E-01  8.50000000E-01  8.50000000E-01  8.50000000E-01  8.50000000E-01
  8.50000000E-01  8.50000000E-01  8.50000000E-01  8.50000000E-01  8.50000000E-01
  8.50000000E-01  8.50000000E-01  8.50000000E-01  8.50000000E-01  8.50000000E-01
  8.50000000E-01  8.50000000E-01  8.50000000E-01  8.50000000E-01  8.50000000E-01
  8.50000000E-01  8.50000000E-01  8.50000000E-01  8.50000000E-01  8.50000000E-01
  8.50000000E-01  8.50000000E-01  8.50000000E-01  8.50000000E-01  8.50000000E-01
  8.50000000E-01  8.50000000E-01  8.50000000E-01  8.50000000E-01  8.50000000E-01
  8.50000000E-01  8.50000000E-01  8.50000000E-01  8.50000000E-01  8.50000000E-01
  8.50000000E-01  8.50000000E-01  8.50000000E-01  8.50000000E-01  8.50000000E-01
  8.50000000E-01  8.50000000E-01  8.50000000E-01  8.50000000E-01  8.50000000E-01
  8.50000000E-01  8.50000000E-01  8.50000000E-01  8.50000000E-01  8.50000000E-01
  8.50000000E-01  8.50000000E-01  8.50000000E-01  8.50000000E-01  8.50000000E-01
  8.50000000E-01  8.50000000E-01  8.50000000E-01  8.50000000E-01  8.50000000E-01
  8.50000000E-01  8.50000000E-01  8.50000000E-01  8.50000000E-01  8.50000000E-01
  8.50000000E-01  8.50000000E-01  8.50000000E-01  8.50000000E-01  8.50000000E-01
  8.50000000E-01  8.50000000E-01  8.50000000E-01  8.50000000E-01  8.50000000E-01
  8.50000000E-01  8.50000000E-01  8.50000000E-01  8.50000000E-01  8.50000000E-01
  8.50000000E-01  8.50000000E-01  8.50000000E-01  8.50000000E-01  8.50000000E-01
  8.50000000E-01  8.50000000E-01  8.50000000E-01  8.50000000E-01  8.50000000E-01
  8.50000000E-01  8.50000000E-01  8.50000000E-01  8.50000000E-01  8.50000000E-01
  8.50000000E-01  8.50000000E-01  8.50000000E-01  8.50000000E-01  8.50000000E-01
  8.50000000E-01  8.50000000E-01  8.50000000E-01  8.50000000E-01  8.50000000E-01
  8.50000000E-01  8.50000000E-01  8.50000000E-01  8.50000000E-01  8.50000000E-01
  8.50000000E-01  8.50000000E-01  8.50000000E-01  8.50000000E-01  8.50000000E-01
  8.50000000E-01  8.50000000E-01  8.50000000E-01  8.50000000E-01  8.50000000E-01
  8.50000000E-01  8.50000000E-01  8.50000000E-01  8.50000000E-01  8.50000000E-01
  8.50000000E-01  8.50000000E-01  8.50000000E-01  8.50000000E-01  8.50000000E-01
  8.50000000E-01  8.50000000E-01  8.50000000E-01  8.50000000E-01  8.50000000E-01
  8.50000000E-01  8.50000000E-01  8.50000000E-01  8.50000000E-01  8.50000000E-01
  8.50000000E-01  8.50000000E-01  8.50000000E-01  8.50000000E-01  8.50000000E-01
  8.50000000E-01  8.50000000E-01  8.50000000E-01  8.50000000E-01  8.50000000E-01
  8.50000000E-01  8.50000000E-01  8.50000000E-01  8.50000000E-01  8.50000000E-01
  8.50000000E-01  8.50000000E-01  8.50000000E-01  8.50000000E-01  8.50000000E-01
  8.50000000E-01  8.50000000E-01  8.50000000E-01  8.50000000E-01  8.50000000E-01
  8.50000000E-01  8.50000000E-01  8.50000000E-01  8.50000000E-01  8.50000000E-01
  8.50000000E-01  8.50000000E-01  8.50000000E-01  8.50000000E-01  8.50000000E-01
  8.50000000E-01  8.50000000E-01  8.50000000E-01  8.50000000E-01  8.50000000E-01
  8.50000000E-01  8.50000000E-01  8.50000000E-01  8.50000000E-01  8.50000000E-01
  8.50000000E-01  8.50000000E-01  8.50000000E-01  8.50000000E-01  8.50000000E-01
  8.50000000E-01  8.50000000E-01  8.50000000E-01  8.50000000E-01  8.50000000E-01
  8.50000000E-01  8.50000000E-01  8.50000000E-01  8.50000000E-01  8.50000000E-01
  8.50000000E-01  8.50000000E-01  8.50000000E-01  8.50000000E-01  8.50000000E-01
  8.50000000E-01  8.50000000E-01  8.50000000E-01  8.50000000E-01  8.50000000E-01
  8.50000000E-01  8.50000000E-01  8.50000000E-01  8.50000000E-01  8.50000000E-01
  8.50000000E-01  8.50000000E-01  8.50000000E-01  8.50000000E-01  8.50000000E-01
  8.50000000E-01  8.50000000E-01  8.50000000E-01  8.50000000E-01  8.50000000E-01
  8.50000000E-01  8.50000000E-01  8.50000000E-01  8.50000000E-01  8.50000000E-01
  8.50000000E-01  8.50000000E-01  8.50000000E-01  8.50000000E-01  8.50000000E-01
  8.50000000E-01  8.50000000E-01  8.50000000E-01  8.50000000E-01  8.50000000E-01
  8.50000000E-01  8.50000000E-01  8.50000000E-01  8.50000000E-01  8.50000000E-01
  8.50000000E-01  8.50000000E-01  8.50000000E-01  8.50000000E-01  8.50000000E-01
  8.50000000E-01  8.50000000E-01  8.50000000E-01  8.50000000E-01  8.50000000E-01
  8.50000000E-01  8.50000000E-01  8.50000000E-01  8.50000000E-01  8.50000000E-01
  8.50000000E-01  8.50000000E-01  8.50000000E-01  8.50000000E-01  8.50000000E-01
  8.50000000E-01  8.50000000E-01  8.50000000E-01  8.50000000E-01  8.50000000E-01
  8.50000000E-01  8.50000000E-01  8.50000000E-01  8.50000000E-01  8.50000000E-01
  8.50000000E-01  8.50000000E-01  8.50000000E-01  8.50000000E-01  8.50000000E-01
  8.50000000E-01  8.50000000E-01  8.50000000E-01  8.50000000E-01  8.50000000E-01
  8.50000000E-01  8.50000000E-01  8.50000000E-01  8.50000000E-01  8.50000000E-01
  8.50000000E-01  8.50000000E-01  8.50000000E-01  8.50000000E-01  8.50000000E-01
  8.50000000E-01  8.50000000E-01  8.50000000E-01  8.50000000E-01  8.50000000E-01
  8.50000000E-01  8.50000000E-01  8.50000000E-01  8.50000000E-01  8.50000000E-01
  8.50000000E-01  8.50000000E-01  8.50000000E-01  8.50000000E-01  8.50000000E-01
  8.50000000E-01  8.50000000E-01  8.50000000E-01  8.50000000E-01  8.50000000E-01
  8.50000000E-01  8.50000000E-01  8.50000000E-01  8.50000000E-01  8.50000000E-01
  8.50000000E-01  8.50000000E-01  8.50000000E-01  8.50000000E-01  8.50000000E-01
  8.50000000E-01  8.50000000E-01  8.50000000E-01  8.50000000E-01  8.50000000E-01
  8.50000000E-01  8.50000000E-01  8.50000000E-01  8.50000000E-01  8.50000000E-01
  8.50000000E-01  8.50000000E-01  8.50000000E-01  8.50000000E-01  8.50000000E-01
  8.50000000E-01  8.50000000E-01  8.50000000E-01  8.50000000E-01  8.50000000E-01
  8.50000000E-01  8.50000000E-01  8.50000000E-01  8.50000000E-01  8.50000000E-01
  8.50000000E-01  8.50000000E-01  8.50000000E-01  8.50000000E-01  8.50000000E-01
  8.50000000E-01  8.50000000E-01  8.50000000E-01  8.50000000E-01  8.50000000E-01
  8.50000000E-01  8.50000000E-01  8.50000000E-01  8.50000000E-01  8.50000000E-01
  8.50000000E-01  8.50000000E-01  8.50000000E-01  8.50000000E-01  8.50000000E-01
  8.50000000E-01  8.50000000E-01  8.50000000E-01  8.50000000E-01  8.50000000E-01
  8.50000000E-01  8.50000000E-01  8.50000000E-01  8.50000000E-01  8.50000000E-01
  8.50000000E-01  8.50000000E-01  8.50000000E-01  8.50000000E-01  8.50000000E-01
  8.50000000E-01  8.50000000E-01  8.50000000E-01  8.50000000E-01  8.50000000E-01
  8.50000000E-01  8.50000000E-01  8.50000000E-01  8.50000000E-01  8.50000000E-01
  8.50000000E-01  8.50000000E-01  8.50000000E-01  8.50000000E-01  8.50000000E-01
  8.50000000E-01  8.50000000E-01  8.50000000E-01  8.50000000E-01  8.50000000E-01
  8.50000000E-01  8.50000000E-01  8.50000000E-01  8.50000000E-01  8.50000000E-01
  8.50000000E-01  8.50000000E-01  8.50000000E-01  8.50000000E-01  8.50000000E-01
  8.50000000E-01  8.50000000E-01  8.50000000E-01  8.50000000E-01  8.50000000E-01
  8.50000000E-01  8.50000000E-01  8.50000000E-01  8.50000000E-01  8.50000000E-01
  8.50000000E-01  8.50000000E-01  8.50000000E-01  8.50000000E-01  8.50000000E-01
  8.50000000E-01  8.50000000E-01  8.50000000E-01  8.50000000E-01  8.50000000E-01
  8.50000000E-01  8.50000000E-01  8.50000000E-01  8.50000000E-01  8.50000000E-01
  8.50000000E-01  8.50000000E-01  8.50000000E-01  8.50000000E-01  8.50000000E-01
  8.50000000E-01  8.50000000E-01  8.50000000E-01  8.50000000E-01  8.50000000E-01
  8.50000000E-01  8.50000000E-01  8.50000000E-01  8.50000000E-01  8.50000000E-01
  8.50000000E-01  8.50000000E-01  8.50000000E-01  8.50000000E-01  8.50000000E-01
  8.50000000E-01  8.50000000E-01  8.50000000E-01  8.50000000E-01  8.50000000E-01
  8.50000000E-01  8.50000000E-01  8.50000000E-01  8.50000000E-01  8.50000000E-01
  8.50000000E-01  8.50000000E-01  8.50000000E-01  8.50000000E-01  8.50000000E-01
  8.50000000E-01  8.50000000E-01  8.50000000E-01  8.50000000E-01  8.50000000E-01
  8.50000000E-01  8.50000000E-01  8.50000000E-01  8.50000000E-01  8.50000000E-01
  8.50000000E-01  8.50000000E-01  8.50000000E-01  8.50000000E-01  8.50000000E-01
  8.50000000E-01  8.50000000E-01  8.50000000E-01  8.50000000E-01  8.50000000E-01
  8.50000000E-01  8.50000000E-01  8.50000000E-01  8.50000000E-01  8.50000000E-01
  8.50000000E-01  8.50000000E-01  8.50000000E-01  8.50000000E-01  8.50000000E-01
  8.50000000E-01  8.50000000E-01  8.50000000E-01  8.50000000E-01  8.50000000E-01
  8.50000000E-01  8.50000000E-01  8.50000000E-01  8.50000000E-01  8.50000000E-01
  8.50000000E-01  8.50000000E-01  8.50000000E-01  8.50000000E-01  8.50000000E-01
  8.50000000E-01  8.50000000E-01  8.50000000E-01  8.50000000E-01  8.50000000E-01
  8.50000000E-01  8.50000000E-01  8.50000000E-01  8.50000000E-01  8.50000000E-01
  8.50000000E-01  8.50000000E-01  8.50000000E-01  8.50000000E-01  8.50000000E-01
  8.50000000E-01  8.50000000E-01  8.50000000E-01  8.50000000E-01  8.50000000E-01
  8.50000000E-01  8.50000000E-01  8.50000000E-01  8.50000000E-01  8.50000000E-01
  8.50000000E-01  8.50000000E-01  8.50000000E-01  8.50000000E-01  8.50000000E-01
  8.50000000E-01  8.50000000E-01  8.50000000E-01  8.50000000E-01  8.50000000E-01
  8.50000000E-01  8.50000000E-01  8.50000000E-01  8.50000000E-01  8.50000000E-01
  8.50000000E-01  8.50000000E-01  8.50000000E-01  8.50000000E-01  8.50000000E-01
  8.50000000E-01  8.50000000E-01  8.50000000E-01  8.50000000E-01  8.50000000E-01
  8.50000000E-01  8.50000000E-01  8.50000000E-01  8.50000000E-01  8.50000000E-01
  8.50000000E-01  8.50000000E-01  8.50000000E-01  8.50000000E-01  8.50000000E-01
  8.50000000E-01  8.50000000E-01  8.50000000E-01  8.50000000E-01  8.50000000E-01
  8.50000000E-01  8.50000000E-01  8.50000000E-01  8.50000000E-01  8.50000000E-01
  8.50000000E-01  8.50000000E-01  8.50000000E-01  8.50000000E-01  8.50000000E-01
  8.50000000E-01  8.50000000E-01  8.50000000E-01  8.50000000E-01  8.50000000E-01
  8.50000000E-01  8.50000000E-01  8.50000000E-01  8.50000000E-01  8.50000000E-01
  8.50000000E-01  8.50000000E-01  8.50000000E-01  8.50000000E-01  8.50000000E-01
  8.50000000E-01  8.50000000E-01  8.50000000E-01  8.50000000E-01  8.50000000E-01
  8.50000000E-01  8.50000000E-01  8.50000000E-01  8.50000000E-01  8.50000000E-01
  8.50000000E-01  8.50000000E-01  8.50000000E-01  8.50000000E-01  8.50000000E-01
  8.50000000E-01  8.50000000E-01  8.50000000E-01  8.50000000E-01  8.50000000E-01
  8.50000000E-01  8.50000000E-01  8.50000000E-01  8.50000000E-01  8.50000000E-01
  8.50000000E-01  8.50000000E-01  8.50000000E-01  8.50000000E-01  8.50000000E-01
  8.50000000E-01  8.50000000E-01  8.50000000E-01  8.50000000E-01  8.50000000E-01
  8.50000000E-01  8.50000000E-01  8.50000000E-01  8.50000000E-01  8.50000000E-01
  8.50000000E-01  8.50000000E-01  8.50000000E-01  8.50000000E-01  8.50000000E-01
  8.50000000E-01  8.50000000E-01  8.50000000E-01  8.50000000E-01  8.50000000E-01
  8.50000000E-01  8.50000000E-01  8.50000000E-01  8.50000000E-01  8.50000000E-01
  8.50000000E-01  8.50000000E-01  8.50000000E-01  8.50000000E-01  8.50000000E-01
  8.50000000E-01  8.50000000E-01  8.50000000E-01  8.50000000E-01  8.50000000E-01
  8.50000000E-01  8.50000000E-01  8.50000000E-01  8.50000000E-01  8.50000000E-01
  8.50000000E-01  8.50000000E-01  8.50000000E-01  8.50000000E-01  8.50000000E-01
  8.50000000E-01  8.50000000E-01  8.50000000E-01  8.50000000E-01  8.50000000E-01
  8.50000000E-01  8.50000000E-01  8.50000000E-01  8.50000000E-01  8.50000000E-01
  8.50000000E-01  8.50000000E-01  8.50000000E-01  8.50000000E-01  8.50000000E-01
  8.50000000E-01  8.50000000E-01  8.50000000E-01  8.50000000E-01  8.50000000E-01
  8.50000000E-01  8.50000000E-01  8.50000000E-01  8.50000000E-01  8.50000000E-01
  8.50000000E-01  8.50000000E-01  8.50000000E-01  8.50000000E-01  8.50000000E-01
  8.50000000E-01  8.50000000E-01  8.50000000E-01  8.50000000E-01  8.50000000E-01
  8.50000000E-01  8.50000000E-01  8.50000000E-01  8.50000000E-01  8.50000000E-01
  8.50000000E-01  8.50000000E-01  8.50000000E-01  8.50000000E-01  8.50000000E-01
  8.50000000E-01  8.50000000E-01  8.50000000E-01  8.50000000E-01  8.50000000E-01
  8.50000000E-01  8.50000000E-01  8.50000000E-01  8.50000000E-01  8.50000000E-01
  8.50000000E-01  8.50000000E-01  8.50000000E-01  8.50000000E-01  8.50000000E-01
  8.50000000E-01  8.50000000E-01  8.50000000E-01  8.50000000E-01  8.50000000E-01
  8.50000000E-01  8.50000000E-01  8.50000000E-01  8.50000000E-01  8.50000000E-01
  8.50000000E-01  8.50000000E-01  8.50000000E-01  8.50000000E-01  8.50000000E-01
  8.50000000E-01  8.50000000E-01  8.50000000E-01  8.50000000E-01  8.50000000E-01
  8.50000000E-01  8.50000000E-01  8.50000000E-01  8.50000000E-01  8.50000000E-01
  8.50000000E-01  8.50000000E-01  8.50000000E-01  8.50000000E-01  8.50000000E-01
  8.50000000E-01  8.50000000E-01  8.50000000E-01  8.50000000E-01  8.50000000E-01
  8.50000000E-01  8.50000000E-01  8.50000000E-01  8.50000000E-01  8.50000000E-01
  8.50000000E-01  8.50000000E-01  8.50000000E-01  8.50000000E-01  8.50000000E-01
  8.50000000E-01  8.50000000E-01  8.50000000E-01  8.50000000E-01  8.50000000E-01
  8.50000000E-01  8.50000000E-01  8.50000000E-01  8.50000000E-01  8.50000000E-01
  8.50000000E-01  8.50000000E-01  8.50000000E-01  8.50000000E-01  8.50000000E-01
  8.50000000E-01  8.50000000E-01  8.50000000E-01  8.50000000E-01  8.50000000E-01
  8.50000000E-01  8.50000000E-01  8.50000000E-01  8.50000000E-01  8.50000000E-01
  8.50000000E-01  8.50000000E-01  8.50000000E-01  8.50000000E-01  8.50000000E-01
  8.50000000E-01  8.50000000E-01  8.50000000E-01  8.50000000E-01  8.50000000E-01
  8.50000000E-01  8.50000000E-01  8.50000000E-01  8.50000000E-01  8.50000000E-01
  8.50000000E-01  8.50000000E-01  8.50000000E-01  8.50000000E-01  8.50000000E-01
  8.50000000E-01  8.50000000E-01  8.50000000E-01  8.50000000E-01  8.50000000E-01
  8.50000000E-01  8.50000000E-01  8.50000000E-01  8.50000000E-01  8.50000000E-01
  8.50000000E-01  8.50000000E-01  8.50000000E-01  8.50000000E-01  8.50000000E-01
  8.50000000E-01  8.50000000E-01  8.50000000E-01  8.50000000E-01  8.50000000E-01
  8.50000000E-01  8.50000000E-01  8.50000000E-01  8.50000000E-01  8.50000000E-01
  8.50000000E-01  8.50000000E-01  8.50000000E-01  8.50000000E-01  8.50000000E-01
  8.50000000E-01  8.50000000E-01  8.50000000E-01  8.50000000E-01  8.50000000E-01
  8.50000000E-01  8.50000000E-01  8.50000000E-01  8.50000000E-01  8.50000000E-01
  8.50000000E-01  8.50000000E-01  8.50000000E-01  8.50000000E-01  8.50000000E-01
  8.50000000E-01  8.50000000E-01  8.50000000E-01  8.50000000E-01  8.50000000E-01
  8.50000000E-01  8.50000000E-01  8.50000000E-01  8.50000000E-01  8.50000000E-01
  8.50000000E-01  8.50000000E-01  8.50000000E-01  8.50000000E-01  8.50000000E-01
  8.50000000E-01  8.50000000E-01  8.50000000E-01  8.50000000E-01  8.50000000E-01
  8.50000000E-01  8.50000000E-01  8.50000000E-01  8.50000000E-01  8.50000000E-01
  8.50000000E-01  8.50000000E-01  8.50000000E-01  8.50000000E-01  8.50000000E-01
  8.50000000E-01  8.50000000E-01  8.50000000E-01  8.50000000E-01  8.50000000E-01
  8.50000000E-01  8.50000000E-01  8.50000000E-01  8.50000000E-01  8.50000000E-01
  8.50000000E-01  8.50000000E-01  8.50000000E-01  8.50000000E-01  8.50000000E-01
  8.50000000E-01  8.50000000E-01  8.50000000E-01  8.50000000E-01  8.50000000E-01
  8.50000000E-01  8.50000000E-01  8.50000000E-01  8.50000000E-01  8.50000000E-01
  8.50000000E-01  8.50000000E-01  8.50000000E-01  8.50000000E-01  8.50000000E-01
  8.50000000E-01  8.50000000E-01  8.50000000E-01  8.50000000E-01  8.50000000E-01
  8.50000000E-01  8.50000000E-01  8.50000000E-01  8.50000000E-01  8.50000000E-01
  8.50000000E-01  8.50000000E-01  8.50000000E-01  8.50000000E-01  8.50000000E-01
  8.50000000E-01  8.50000000E-01  8.50000000E-01  8.50000000E-01  8.50000000E-01
  8.50000000E-01  8.50000000E-01  8.50000000E-01  8.50000000E-01  8.50000000E-01
  8.50000000E-01  8.50000000E-01  8.50000000E-01  8.50000000E-01  8.50000000E-01
  8.50000000E-01  8.50000000E-01  8.50000000E-01  8.50000000E-01  8.50000000E-01
  8.50000000E-01  8.50000000E-01  8.50000000E-01  8.50000000E-01  8.50000000E-01
  8.50000000E-01  8.50000000E-01  8.50000000E-01  8.50000000E-01  8.50000000E-01
  8.50000000E-01  8.50000000E-01  8.50000000E-01  8.50000000E-01  8.50000000E-01
  8.50000000E-01  8.50000000E-01  8.50000000E-01  8.50000000E-01  8.50000000E-01
  8.50000000E-01  8.50000000E-01  8.50000000E-01  8.50000000E-01  8.50000000E-01
  8.50000000E-01  8.50000000E-01  8.50000000E-01  8.50000000E-01  8.50000000E-01
  8.50000000E-01  8.50000000E-01  8.50000000E-01  8.50000000E-01  8.50000000E-01
  8.50000000E-01  8.50000000E-01  8.50000000E-01  8.50000000E-01  8.50000000E-01
  8.50000000E-01  8.50000000E-01  8.50000000E-01  8.50000000E-01  8.50000000E-01
  8.50000000E-01  8.50000000E-01  8.50000000E-01  8.50000000E-01  8.50000000E-01
  8.50000000E-01  8.50000000E-01  8.50000000E-01  8.50000000E-01  8.50000000E-01
  8.50000000E-01  8.50000000E-01  8.50000000E-01  8.50000000E-01  8.50000000E-01
  8.50000000E-01  8.50000000E-01  8.50000000E-01  8.50000000E-01  8.50000000E-01
  8.50000000E-01  8.50000000E-01  8.50000000E-01  8.50000000E-01  8.50000000E-01
  8.50000000E-01  8.50000000E-01  8.50000000E-01  8.50000000E-01  8.50000000E-01
  8.50000000E-01  8.50000000E-01  8.50000000E-01  8.50000000E-01  8.50000000E-01
  8.50000000E-01  8.50000000E-01  8.50000000E-01  8.50000000E-01  8.50000000E-01
  8.50000000E-01  8.50000000E-01  8.50000000E-01  8.50000000E-01  8.50000000E-01
  8.50000000E-01  8.50000000E-01  8.50000000E-01  8.50000000E-01  8.50000000E-01
  8.50000000E-01  8.50000000E-01  8.50000000E-01  8.50000000E-01  8.50000000E-01
  8.50000000E-01  8.50000000E-01  8.50000000E-01  8.50000000E-01  8.50000000E-01
  8.50000000E-01  8.50000000E-01  8.50000000E-01  8.50000000E-01  8.50000000E-01
  8.50000000E-01  8.50000000E-01  8.50000000E-01  8.50000000E-01  8.50000000E-01
  8.50000000E-01  8.50000000E-01  8.50000000E-01  8.50000000E-01  8.50000000E-01
  8.50000000E-01  8.50000000E-01  8.50000000E-01  8.50000000E-01  8.50000000E-01
  8.50000000E-01  8.50000000E-01  8.50000000E-01  8.50000000E-01  8.50000000E-01
  8.50000000E-01  8.50000000E-01  8.50000000E-01  8.50000000E-01  8.50000000E-01
  8.50000000E-01  8.50000000E-01  8.50000000E-01  8.50000000E-01  8.50000000E-01
  8.50000000E-01  8.50000000E-01  8.50000000E-01  8.50000000E-01  8.50000000E-01
  8.50000000E-01  8.50000000E-01  8.50000000E-01  8.50000000E-01  8.50000000E-01
  8.50000000E-01  8.50000000E-01  8.50000000E-01  8.50000000E-01  8.50000000E-01
  8.50000000E-01  8.50000000E-01  8.50000000E-01  8.50000000E-01  8.50000000E-01
  8.50000000E-01  8.50000000E-01  8.50000000E-01  8.50000000E-01  8.50000000E-01
  8.50000000E-01  8.50000000E-01  8.50000000E-01  8.50000000E-01  8.50000000E-01
  8.50000000E-01  8.50000000E-01  8.50000000E-01  8.50000000E-01  8.50000000E-01
  8.50000000E-01  8.50000000E-01  8.50000000E-01  8.50000000E-01  8.50000000E-01
  8.50000000E-01  8.50000000E-01  8.50000000E-01  8.50000000E-01  8.50000000E-01
  8.50000000E-01  8.50000000E-01  8.50000000E-01  8.50000000E-01  8.50000000E-01
  8.50000000E-01  8.50000000E-01  8.50000000E-01  8.50000000E-01  8.50000000E-01
  8.50000000E-01  8.50000000E-01  8.50000000E-01  8.50000000E-01  8.50000000E-01
  8.50000000E-01  8.50000000E-01  8.50000000E-01  8.50000000E-01  8.50000000E-01
  8.50000000E-01  8.50000000E-01  8.50000000E-01  8.50000000E-01  8.50000000E-01
  8.50000000E-01  8.50000000E-01  8.50000000E-01  8.50000000E-01  8.50000000E-01
  8.50000000E-01  8.50000000E-01  8.50000000E-01  8.50000000E-01  8.50000000E-01
  8.50000000E-01  8.50000000E-01  8.50000000E-01  8.50000000E-01  8.50000000E-01
  8.50000000E-01  8.50000000E-01  8.50000000E-01  8.50000000E-01  8.50000000E-01
  8.50000000E-01  8.50000000E-01  8.50000000E-01  8.50000000E-01  8.50000000E-01
  8.50000000E-01  8.50000000E-01  8.50000000E-01  8.50000000E-01  8.50000000E-01
  8.50000000E-01  8.50000000E-01  8.50000000E-01  8.50000000E-01  8.50000000E-01
  8.50000000E-01  8.50000000E-01  8.50000000E-01  8.50000000E-01  8.50000000E-01
  8.50000000E-01  8.50000000E-01  8.50000000E-01  8.50000000E-01  8.50000000E-01
  8.50000000E-01  8.50000000E-01  8.50000000E-01  8.50000000E-01  8.50000000E-01
  8.50000000E-01  8.50000000E-01  8.50000000E-01  8.50000000E-01  8.50000000E-01
  8.50000000E-01  8.50000000E-01  8.50000000E-01  8.50000000E-01  8.50000000E-01
  8.50000000E-01  8.50000000E-01  8.50000000E-01  8.50000000E-01  8.50000000E-01
  8.50000000E-01  8.50000000E-01  8.50000000E-01  8.50000000E-01  8.50000000E-01
  8.50000000E-01  8.50000000E-01  8.50000000E-01  8.50000000E-01  8.50000000E-01
  8.50000000E-01  8.50000000E-01  8.50000000E-01  8.50000000E-01  8.50000000E-01
  8.50000000E-01  8.50000000E-01  8.50000000E-01  8.50000000E-01  8.50000000E-01
  8.50000000E-01  8.50000000E-01  8.50000000E-01  8.50000000E-01  8.50000000E-01
  8.50000000E-01  8.50000000E-01  8.50000000E-01  8.50000000E-01  8.50000000E-01
  8.50000000E-01  8.50000000E-01  8.50000000E-01  8.50000000E-01  8.50000000E-01
  8.50000000E-01  8.50000000E-01  8.50000000E-01  8.50000000E-01  8.50000000E-01
  8.50000000E-01  8.50000000E-01  8.50000000E-01  8.50000000E-01  8.50000000E-01
  8.50000000E-01  8.50000000E-01  8.50000000E-01  8.50000000E-01  8.50000000E-01
  8.50000000E-01  8.50000000E-01  8.50000000E-01  8.50000000E-01  8.50000000E-01
  8.50000000E-01  8.50000000E-01  8.50000000E-01  8.50000000E-01  8.50000000E-01
  8.50000000E-01  8.50000000E-01  8.50000000E-01  8.50000000E-01  8.50000000E-01
  8.50000000E-01  8.50000000E-01  8.50000000E-01  8.50000000E-01  8.50000000E-01
  8.50000000E-01  8.50000000E-01  8.50000000E-01  8.50000000E-01  8.50000000E-01
  8.50000000E-01  8.50000000E-01  8.50000000E-01  8.50000000E-01  8.50000000E-01
  8.50000000E-01  8.50000000E-01  8.50000000E-01  8.50000000E-01  8.50000000E-01
  8.50000000E-01  8.50000000E-01  8.50000000E-01  8.50000000E-01  8.50000000E-01
  8.50000000E-01  8.50000000E-01  8.50000000E-01  8.50000000E-01  8.50000000E-01
  8.50000000E-01  8.50000000E-01  8.50000000E-01  8.50000000E-01  8.50000000E-01
  8.50000000E-01  8.50000000E-01  8.50000000E-01  8.50000000E-01  8.50000000E-01
  8.50000000E-01  8.50000000E-01  8.50000000E-01  8.50000000E-01  8.50000000E-01
  8.50000000E-01  8.50000000E-01  8.50000000E-01  8.50000000E-01  8.50000000E-01
  8.50000000E-01  8.50000000E-01  8.50000000E-01  8.50000000E-01  8.50000000E-01
  8.50000000E-01  8.50000000E-01  8.50000000E-01  8.50000000E-01  8.50000000E-01
  8.50000000E-01  8.50000000E-01  8.50000000E-01  8.50000000E-01  8.50000000E-01
  8.50000000E-01  8.50000000E-01  8.50000000E-01  8.50000000E-01  8.50000000E-01
  8.50000000E-01  8.50000000E-01  8.50000000E-01  8.50000000E-01  8.50000000E-01
  8.50000000E-01  8.50000000E-01  8.50000000E-01  8.50000000E-01  8.50000000E-01
  8.50000000E-01  8.50000000E-01  8.50000000E-01  8.50000000E-01  8.50000000E-01
  8.50000000E-01  8.50000000E-01  8.50000000E-01  8.50000000E-01  8.50000000E-01
  8.50000000E-01  8.50000000E-01  8.50000000E-01  8.50000000E-01  8.50000000E-01
  8.50000000E-01  8.50000000E-01  8.50000000E-01  8.50000000E-01  8.50000000E-01
  8.50000000E-01  8.50000000E-01  8.50000000E-01  8.50000000E-01  8.50000000E-01
  8.50000000E-01  8.50000000E-01  8.50000000E-01  8.50000000E-01  8.50000000E-01
  8.50000000E-01  8.50000000E-01  8.50000000E-01  8.50000000E-01  8.50000000E-01
  8.50000000E-01  8.50000000E-01  8.50000000E-01  8.50000000E-01  8.50000000E-01
  8.50000000E-01  8.50000000E-01  8.50000000E-01  8.50000000E-01  8.50000000E-01
  8.50000000E-01  8.50000000E-01  8.50000000E-01  8.50000000E-01  8.50000000E-01
  8.50000000E-01  8.50000000E-01  8.50000000E-01  8.50000000E-01  8.50000000E-01
  8.50000000E-01  8.50000000E-01  8.50000000E-01  8.50000000E-01  8.50000000E-01
  8.50000000E-01  8.50000000E-01  8.50000000E-01  8.50000000E-01  8.50000000E-01
  8.50000000E-01  8.50000000E-01  8.50000000E-01  8.50000000E-01  8.50000000E-01
  8.50000000E-01  8.50000000E-01  8.50000000E-01  8.50000000E-01  8.50000000E-01
  8.50000000E-01  8.50000000E-01  8.50000000E-01  8.50000000E-01  8.50000000E-01
  8.50000000E-01  8.50000000E-01  8.50000000E-01  8.50000000E-01  8.50000000E-01
  8.50000000E-01  8.50000000E-01  8.50000000E-01  8.50000000E-01  8.50000000E-01
  8.50000000E-01  8.50000000E-01  8.50000000E-01  8.50000000E-01  8.50000000E-01
  8.50000000E-01  8.50000000E-01  8.50000000E-01  8.50000000E-01  8.50000000E-01
  8.50000000E-01  8.50000000E-01  8.50000000E-01  8.50000000E-01  8.50000000E-01
  8.50000000E-01  8.50000000E-01  8.50000000E-01  8.50000000E-01  8.50000000E-01
  8.50000000E-01  8.50000000E-01  8.50000000E-01  8.50000000E-01  8.50000000E-01
  8.50000000E-01  8.50000000E-01  8.50000000E-01  8.50000000E-01  8.50000000E-01
  8.50000000E-01  8.50000000E-01  8.50000000E-01  8.50000000E-01  8.50000000E-01
  8.50000000E-01  8.50000000E-01  8.50000000E-01  8.50000000E-01  8.50000000E-01
  8.50000000E-01  8.50000000E-01  8.50000000E-01  8.50000000E-01  8.50000000E-01
  8.50000000E-01  8.50000000E-01  8.50000000E-01  8.50000000E-01  8.50000000E-01
  8.50000000E-01  8.50000000E-01  8.50000000E-01  8.50000000E-01  8.50000000E-01
  8.50000000E-01  8.50000000E-01  8.50000000E-01  8.50000000E-01  8.50000000E-01
  8.50000000E-01  8.50000000E-01  8.50000000E-01  8.50000000E-01  8.50000000E-01
  8.50000000E-01  8.50000000E-01  8.50000000E-01  8.50000000E-01  8.50000000E-01
  8.50000000E-01  8.50000000E-01  8.50000000E-01  8.50000000E-01  8.50000000E-01
  8.50000000E-01  8.50000000E-01  8.50000000E-01  8.50000000E-01  8.50000000E-01
  8.50000000E-01  8.50000000E-01  8.50000000E-01  8.50000000E-01  8.50000000E-01
  8.50000000E-01  8.50000000E-01  8.50000000E-01  8.50000000E-01  8.50000000E-01
  8.50000000E-01  8.50000000E-01  8.50000000E-01  8.50000000E-01  8.50000000E-01
  8.50000000E-01  8.50000000E-01  8.50000000E-01  8.50000000E-01  8.50000000E-01
  8.50000000E-01  8.50000000E-01  8.50000000E-01  8.50000000E-01  8.50000000E-01
  8.50000000E-01  8.50000000E-01  8.50000000E-01  8.50000000E-01  8.50000000E-01
  8.50000000E-01  8.50000000E-01  8.50000000E-01  8.50000000E-01  8.50000000E-01
  8.50000000E-01  8.50000000E-01  8.50000000E-01  8.50000000E-01  8.50000000E-01
  8.50000000E-01  8.50000000E-01  8.50000000E-01  8.50000000E-01  8.50000000E-01
  8.50000000E-01  8.50000000E-01  8.50000000E-01  8.50000000E-01  8.50000000E-01
  8.50000000E-01  8.50000000E-01  8.50000000E-01  8.50000000E-01  8.50000000E-01
  8.50000000E-01  8.50000000E-01  8.50000000E-01  8.50000000E-01  8.50000000E-01
  8.50000000E-01  8.50000000E-01  8.50000000E-01  8.50000000E-01  8.50000000E-01
  8.50000000E-01  8.50000000E-01  8.50000000E-01  8.50000000E-01  8.50000000E-01
  8.50000000E-01  8.50000000E-01  8.50000000E-01  8.50000000E-01  8.50000000E-01
  8.50000000E-01  8.50000000E-01  8.50000000E-01  8.50000000E-01  8.50000000E-01
  8.50000000E-01  8.50000000E-01  8.50000000E-01  8.50000000E-01  8.50000000E-01
  8.50000000E-01  8.50000000E-01  8.50000000E-01  8.50000000E-01  8.50000000E-01
  8.50000000E-01  8.50000000E-01  8.50000000E-01  8.50000000E-01  8.50000000E-01
  8.50000000E-01  8.50000000E-01  8.50000000E-01  8.50000000E-01  8.50000000E-01
  8.50000000E-01  8.50000000E-01  8.50000000E-01  8.50000000E-01  8.50000000E-01
  8.50000000E-01  8.50000000E-01  8.50000000E-01  8.50000000E-01  8.50000000E-01
  8.50000000E-01  8.50000000E-01  8.50000000E-01  8.50000000E-01  8.50000000E-01
  8.50000000E-01  8.50000000E-01  8.50000000E-01  8.50000000E-01  8.50000000E-01
  8.50000000E-01  8.50000000E-01  8.50000000E-01  8.50000000E-01  8.50000000E-01
  8.50000000E-01  8.50000000E-01  8.50000000E-01  8.50000000E-01  8.50000000E-01
  8.50000000E-01  8.50000000E-01  8.50000000E-01  8.50000000E-01  8.50000000E-01
  8.50000000E-01  8.50000000E-01  8.50000000E-01  8.50000000E-01  8.50000000E-01
  8.50000000E-01  8.50000000E-01  8.50000000E-01  8.50000000E-01  8.50000000E-01
  8.50000000E-01  8.50000000E-01  8.50000000E-01  8.50000000E-01  8.50000000E-01
  8.50000000E-01  8.50000000E-01  8.50000000E-01  8.50000000E-01  8.50000000E-01
  8.50000000E-01  8.50000000E-01  8.50000000E-01  8.50000000E-01  8.50000000E-01
  8.50000000E-01  8.50000000E-01  8.50000000E-01  8.50000000E-01  8.50000000E-01
  8.50000000E-01  8.50000000E-01  8.50000000E-01  8.50000000E-01  8.50000000E-01
  8.50000000E-01  8.50000000E-01  8.50000000E-01  8.50000000E-01  8.50000000E-01
  8.50000000E-01  8.50000000E-01  8.50000000E-01  8.50000000E-01  8.50000000E-01
  8.50000000E-01  8.50000000E-01  8.50000000E-01  8.50000000E-01  8.50000000E-01
  8.50000000E-01  8.50000000E-01  8.50000000E-01  8.50000000E-01  8.50000000E-01
  8.50000000E-01  8.50000000E-01  8.50000000E-01  8.50000000E-01  8.50000000E-01
  8.50000000E-01  8.50000000E-01  8.50000000E-01  8.50000000E-01  8.50000000E-01
  8.50000000E-01  8.50000000E-01  8.50000000E-01  8.50000000E-01  8.50000000E-01
  8.50000000E-01  8.50000000E-01  8.50000000E-01  8.50000000E-01  8.50000000E-01
  8.50000000E-01  8.50000000E-01  8.50000000E-01  8.50000000E-01  8.50000000E-01
  8.50000000E-01  8.50000000E-01  8.50000000E-01  8.50000000E-01  8.50000000E-01
  8.50000000E-01  8.50000000E-01  8.50000000E-01  8.50000000E-01  8.50000000E-01
  8.50000000E-01  8.50000000E-01  8.50000000E-01  8.50000000E-01  8.50000000E-01
  8.50000000E-01  8.50000000E-01  8.50000000E-01  8.50000000E-01  8.50000000E-01
  8.50000000E-01  8.50000000E-01  8.50000000E-01  8.50000000E-01  8.50000000E-01
  8.50000000E-01  8.50000000E-01  8.50000000E-01  8.50000000E-01  8.50000000E-01
  8.50000000E-01  8.50000000E-01  8.50000000E-01  8.50000000E-01  8.50000000E-01
  8.50000000E-01  8.50000000E-01  8.50000000E-01  8.50000000E-01  8.50000000E-01
  8.50000000E-01  8.50000000E-01  8.50000000E-01  8.50000000E-01  8.50000000E-01
  8.50000000E-01  8.50000000E-01  8.50000000E-01  8.50000000E-01  8.50000000E-01
  8.50000000E-01  8.50000000E-01  8.50000000E-01  8.50000000E-01  8.50000000E-01
  8.50000000E-01  8.50000000E-01  8.50000000E-01  8.50000000E-01  8.50000000E-01
  8.50000000E-01  8.50000000E-01  8.50000000E-01  8.50000000E-01  8.50000000E-01
  8.50000000E-01  8.50000000E-01  8.50000000E-01  8.50000000E-01  8.50000000E-01
  8.50000000E-01  8.50000000E-01  8.50000000E-01  8.50000000E-01  8.50000000E-01
  8.50000000E-01  8.50000000E-01  8.50000000E-01  8.50000000E-01  8.50000000E-01
  8.50000000E-01  8.50000000E-01  8.50000000E-01  8.50000000E-01  8.50000000E-01
  8.50000000E-01  8.50000000E-01  8.50000000E-01  8.50000000E-01  8.50000000E-01
  8.50000000E-01  8.50000000E-01  8.50000000E-01  8.50000000E-01  8.50000000E-01
  8.50000000E-01  8.50000000E-01  8.50000000E-01  8.50000000E-01  8.50000000E-01
  8.50000000E-01  8.50000000E-01  8.50000000E-01  8.50000000E-01  8.50000000E-01
  8.50000000E-01  8.50000000E-01  8.50000000E-01  8.50000000E-01  8.50000000E-01
  8.50000000E-01  8.50000000E-01  8.50000000E-01  8.50000000E-01  8.50000000E-01
  8.50000000E-01  8.50000000E-01  8.50000000E-01  8.50000000E-01  8.50000000E-01
  8.50000000E-01  8.50000000E-01  8.50000000E-01  8.50000000E-01  8.50000000E-01
  8.50000000E-01  8.50000000E-01  8.50000000E-01  8.50000000E-01  8.50000000E-01
  8.50000000E-01  8.50000000E-01  8.50000000E-01  8.50000000E-01  8.50000000E-01
  8.50000000E-01  8.50000000E-01  8.50000000E-01  8.50000000E-01  8.50000000E-01
  8.50000000E-01  8.50000000E-01  8.50000000E-01  8.50000000E-01  8.50000000E-01
  8.50000000E-01  8.50000000E-01  8.50000000E-01  8.50000000E-01  8.50000000E-01
  8.50000000E-01  8.50000000E-01  8.50000000E-01  8.50000000E-01  8.50000000E-01
  8.50000000E-01  8.50000000E-01  8.50000000E-01  8.50000000E-01  8.50000000E-01
  8.50000000E-01  8.50000000E-01  8.50000000E-01  8.50000000E-01  8.50000000E-01
  8.50000000E-01  8.50000000E-01  8.50000000E-01  8.50000000E-01  8.50000000E-01
  8.50000000E-01  8.50000000E-01  8.50000000E-01  8.50000000E-01  8.50000000E-01
  8.50000000E-01  8.50000000E-01  8.50000000E-01  8.50000000E-01  8.50000000E-01
  8.50000000E-01  8.50000000E-01  8.50000000E-01  8.50000000E-01  8.50000000E-01
  8.50000000E-01  8.50000000E-01  8.50000000E-01  8.50000000E-01  8.50000000E-01
  8.50000000E-01  8.50000000E-01  8.50000000E-01  8.50000000E-01  8.50000000E-01
  8.50000000E-01  8.50000000E-01  8.50000000E-01  8.50000000E-01  8.50000000E-01
  8.50000000E-01  8.50000000E-01  8.50000000E-01  8.50000000E-01  8.50000000E-01
  8.50000000E-01  8.50000000E-01  8.50000000E-01  8.50000000E-01  8.50000000E-01
  8.50000000E-01  8.50000000E-01  8.50000000E-01  8.50000000E-01  8.50000000E-01
  8.50000000E-01  8.50000000E-01  8.50000000E-01  8.50000000E-01  8.50000000E-01
  8.50000000E-01  8.50000000E-01  8.50000000E-01  8.50000000E-01  8.50000000E-01
  8.50000000E-01  8.50000000E-01  8.50000000E-01  8.50000000E-01  8.50000000E-01
  8.50000000E-01  8.50000000E-01  8.50000000E-01  8.50000000E-01  8.50000000E-01
  8.50000000E-01  8.50000000E-01  8.50000000E-01  8.50000000E-01  8.50000000E-01
  8.50000000E-01  8.50000000E-01  8.50000000E-01  8.50000000E-01  8.50000000E-01
  8.50000000E-01  8.50000000E-01  8.50000000E-01  8.50000000E-01  8.50000000E-01
  8.50000000E-01  8.50000000E-01  8.50000000E-01  8.50000000E-01  8.50000000E-01
  8.50000000E-01  8.50000000E-01  8.50000000E-01  8.50000000E-01  8.50000000E-01
  8.50000000E-01  8.50000000E-01  8.50000000E-01  8.50000000E-01  8.50000000E-01
  8.50000000E-01  8.50000000E-01  8.50000000E-01  8.50000000E-01  8.50000000E-01
  8.50000000E-01  8.50000000E-01  8.50000000E-01  8.50000000E-01  8.50000000E-01
  8.50000000E-01  8.50000000E-01  8.50000000E-01  8.50000000E-01  8.50000000E-01
  8.50000000E-01  8.50000000E-01  8.50000000E-01  8.50000000E-01  8.50000000E-01
  8.50000000E-01  8.50000000E-01  8.50000000E-01  8.50000000E-01  8.50000000E-01
  8.50000000E-01  8.50000000E-01  8.50000000E-01  8.50000000E-01  8.50000000E-01
  8.50000000E-01  8.50000000E-01  8.50000000E-01  8.50000000E-01  8.50000000E-01
  8.50000000E-01  8.50000000E-01  8.50000000E-01  8.50000000E-01  8.50000000E-01
  8.50000000E-01  8.50000000E-01  8.50000000E-01  8.50000000E-01  8.50000000E-01
  8.50000000E-01  8.50000000E-01  8.50000000E-01  8.50000000E-01  8.50000000E-01
  8.50000000E-01  8.50000000E-01  8.50000000E-01  8.50000000E-01  8.50000000E-01
  8.50000000E-01  8.50000000E-01  8.50000000E-01  8.50000000E-01  8.50000000E-01
  8.50000000E-01  8.50000000E-01  8.50000000E-01  8.50000000E-01  8.50000000E-01
  8.50000000E-01  8.50000000E-01  8.50000000E-01  8.50000000E-01  8.50000000E-01
  8.50000000E-01  8.50000000E-01  8.50000000E-01  8.50000000E-01  8.50000000E-01
  8.50000000E-01  8.50000000E-01  8.50000000E-01  8.50000000E-01  8.50000000E-01
  8.50000000E-01  8.50000000E-01  8.50000000E-01  8.50000000E-01  8.50000000E-01
  8.50000000E-01  8.50000000E-01  8.50000000E-01  8.50000000E-01  8.50000000E-01
  8.50000000E-01  8.50000000E-01  8.50000000E-01  8.50000000E-01  8.50000000E-01
  8.50000000E-01  8.50000000E-01  8.50000000E-01  8.50000000E-01  8.50000000E-01
  8.50000000E-01  8.50000000E-01  8.50000000E-01  8.50000000E-01  8.50000000E-01
  8.50000000E-01  8.50000000E-01  8.50000000E-01  8.50000000E-01  8.50000000E-01
  8.50000000E-01  8.50000000E-01  8.50000000E-01  8.50000000E-01  8.50000000E-01
  8.50000000E-01  8.50000000E-01  8.50000000E-01  8.50000000E-01  8.50000000E-01
  8.50000000E-01  8.50000000E-01  8.50000000E-01  8.50000000E-01  8.50000000E-01
  8.50000000E-01  8.50000000E-01  8.50000000E-01  8.50000000E-01  8.50000000E-01
  8.50000000E-01  8.50000000E-01  8.50000000E-01  8.50000000E-01  8.50000000E-01
  8.50000000E-01  8.50000000E-01  8.50000000E-01  8.50000000E-01  8.50000000E-01
  8.50000000E-01  8.50000000E-01  8.50000000E-01  8.50000000E-01  8.50000000E-01
  8.50000000E-01  8.50000000E-01  8.50000000E-01  8.50000000E-01  8.50000000E-01
  8.50000000E-01  8.50000000E-01  8.50000000E-01  8.50000000E-01  8.50000000E-01
  8.50000000E-01  8.50000000E-01  8.50000000E-01  8.50000000E-01  8.50000000E-01
  8.50000000E-01  8.50000000E-01  8.50000000E-01  8.50000000E-01  8.50000000E-01
  8.50000000E-01  8.50000000E-01  8.50000000E-01  8.50000000E-01  8.50000000E-01
  8.50000000E-01  8.50000000E-01  8.50000000E-01  8.50000000E-01  8.50000000E-01
  8.50000000E-01  8.50000000E-01  8.50000000E-01  8.50000000E-01  8.50000000E-01
  8.50000000E-01  8.50000000E-01  8.50000000E-01  8.50000000E-01  8.50000000E-01
  8.50000000E-01  8.50000000E-01  8.50000000E-01  8.50000000E-01  8.50000000E-01
  8.50000000E-01  8.50000000E-01  8.50000000E-01  8.50000000E-01  8.50000000E-01
  8.50000000E-01  8.50000000E-01  8.50000000E-01  8.50000000E-01  8.50000000E-01
  8.50000000E-01  8.50000000E-01  8.50000000E-01  8.50000000E-01  8.50000000E-01
  8.50000000E-01  8.50000000E-01  8.50000000E-01  8.50000000E-01  8.50000000E-01
  8.50000000E-01  8.50000000E-01  8.50000000E-01  8.50000000E-01  8.50000000E-01
  8.50000000E-01  8.50000000E-01  8.50000000E-01  8.50000000E-01  8.50000000E-01
  8.50000000E-01  8.50000000E-01  8.50000000E-01  8.50000000E-01  8.50000000E-01
  8.50000000E-01  8.50000000E-01  8.50000000E-01  8.50000000E-01  8.50000000E-01
  8.50000000E-01  8.50000000E-01  8.50000000E-01  8.50000000E-01  8.50000000E-01
  8.50000000E-01  8.50000000E-01  8.50000000E-01  8.50000000E-01  8.50000000E-01
  8.50000000E-01  8.50000000E-01  8.50000000E-01  8.50000000E-01  8.50000000E-01
  8.50000000E-01  8.50000000E-01  8.50000000E-01  8.50000000E-01  8.50000000E-01
  8.50000000E-01  8.50000000E-01  8.50000000E-01  8.50000000E-01  8.50000000E-01
  8.50000000E-01  8.50000000E-01  8.50000000E-01  8.50000000E-01  8.50000000E-01
  8.50000000E-01  8.50000000E-01  8.50000000E-01  8.50000000E-01  8.50000000E-01
  8.50000000E-01  8.50000000E-01  8.50000000E-01  8.50000000E-01  8.50000000E-01
  8.50000000E-01  8.50000000E-01  8.50000000E-01  8.50000000E-01  8.50000000E-01
  8.50000000E-01  8.50000000E-01  8.50000000E-01  8.50000000E-01  8.50000000E-01
  8.50000000E-01  8.50000000E-01  8.50000000E-01  8.50000000E-01  8.50000000E-01
  8.50000000E-01  8.50000000E-01  8.50000000E-01  8.50000000E-01  8.50000000E-01
  8.50000000E-01  8.50000000E-01  8.50000000E-01  8.50000000E-01  8.50000000E-01
  8.50000000E-01  8.50000000E-01  8.50000000E-01  8.50000000E-01  8.50000000E-01
  8.50000000E-01  8.50000000E-01  8.50000000E-01  8.50000000E-01  8.50000000E-01
  8.50000000E-01  8.50000000E-01  8.50000000E-01  8.50000000E-01  8.50000000E-01
  8.50000000E-01  8.50000000E-01  8.50000000E-01  8.50000000E-01  8.50000000E-01
  8.50000000E-01  8.50000000E-01  8.50000000E-01  8.50000000E-01  8.50000000E-01
  8.50000000E-01  8.50000000E-01  8.50000000E-01  8.50000000E-01  8.50000000E-01
  8.50000000E-01  8.50000000E-01  8.50000000E-01  8.50000000E-01  8.50000000E-01
  8.50000000E-01  8.50000000E-01  8.50000000E-01  8.50000000E-01  8.50000000E-01
  8.50000000E-01  8.50000000E-01  8.50000000E-01  8.50000000E-01  8.50000000E-01
  8.50000000E-01  8.50000000E-01  8.50000000E-01  8.50000000E-01  8.50000000E-01
  8.50000000E-01  8.50000000E-01  8.50000000E-01  8.50000000E-01  8.50000000E-01
  8.50000000E-01  8.50000000E-01  8.50000000E-01  8.50000000E-01  8.50000000E-01
  8.50000000E-01  8.50000000E-01  8.50000000E-01  8.50000000E-01  8.50000000E-01
  8.50000000E-01  8.50000000E-01  8.50000000E-01  8.50000000E-01  8.50000000E-01
  8.50000000E-01  8.50000000E-01  8.50000000E-01  8.50000000E-01  8.50000000E-01
  8.50000000E-01  8.50000000E-01  8.50000000E-01  8.50000000E-01  8.50000000E-01
  8.50000000E-01  8.50000000E-01  8.50000000E-01  8.50000000E-01  8.50000000E-01
  8.50000000E-01  8.50000000E-01  8.50000000E-01  8.50000000E-01  8.50000000E-01
  8.50000000E-01  8.50000000E-01  8.50000000E-01  8.50000000E-01  8.50000000E-01
  8.50000000E-01  8.50000000E-01  8.50000000E-01  8.50000000E-01  8.50000000E-01
  8.50000000E-01  8.50000000E-01  8.50000000E-01  8.50000000E-01  8.50000000E-01
  8.50000000E-01  8.50000000E-01  8.50000000E-01  8.50000000E-01  8.50000000E-01
  8.50000000E-01  8.50000000E-01  8.50000000E-01  8.50000000E-01  8.50000000E-01
  8.50000000E-01  8.50000000E-01  8.50000000E-01  8.50000000E-01  8.50000000E-01
  8.50000000E-01  8.50000000E-01  8.50000000E-01  8.50000000E-01  8.50000000E-01
  8.50000000E-01  8.50000000E-01  8.50000000E-01  8.50000000E-01  8.50000000E-01
  8.50000000E-01  8.50000000E-01  8.50000000E-01  8.50000000E-01  8.50000000E-01
  8.50000000E-01  8.50000000E-01  8.50000000E-01  8.50000000E-01  8.50000000E-01
  8.50000000E-01  8.50000000E-01  8.50000000E-01  8.50000000E-01  8.50000000E-01
  8.50000000E-01  8.50000000E-01  8.50000000E-01  8.50000000E-01  8.50000000E-01
  8.50000000E-01  8.50000000E-01  8.50000000E-01  8.50000000E-01  8.50000000E-01
  8.50000000E-01  8.50000000E-01  8.50000000E-01  8.50000000E-01  8.50000000E-01
  8.50000000E-01  8.50000000E-01  8.50000000E-01  8.50000000E-01  8.50000000E-01
  8.50000000E-01  8.50000000E-01  8.50000000E-01  8.50000000E-01  8.50000000E-01
  8.50000000E-01  8.50000000E-01  8.50000000E-01  8.50000000E-01  8.50000000E-01
  8.50000000E-01  8.50000000E-01  8.50000000E-01  8.50000000E-01  8.50000000E-01
  8.50000000E-01  8.50000000E-01  8.50000000E-01  8.50000000E-01  8.50000000E-01
  8.50000000E-01  8.50000000E-01  8.50000000E-01  8.50000000E-01  8.50000000E-01
  8.50000000E-01  8.50000000E-01  8.50000000E-01  8.50000000E-01  8.50000000E-01
  8.50000000E-01  8.50000000E-01  8.50000000E-01  8.50000000E-01  8.50000000E-01
  8.50000000E-01  8.50000000E-01  8.50000000E-01  8.50000000E-01  8.50000000E-01
  8.50000000E-01  8.50000000E-01  8.50000000E-01  8.50000000E-01  8.50000000E-01
  8.50000000E-01  8.50000000E-01  8.50000000E-01  8.50000000E-01  8.50000000E-01
  8.50000000E-01  8.50000000E-01  8.50000000E-01  8.50000000E-01  8.50000000E-01
  8.50000000E-01  8.50000000E-01  8.50000000E-01  8.50000000E-01  8.50000000E-01
  8.50000000E-01  8.50000000E-01  8.50000000E-01  8.50000000E-01  8.50000000E-01
  8.50000000E-01  8.50000000E-01  8.50000000E-01  8.50000000E-01  8.50000000E-01
  8.50000000E-01  8.50000000E-01  8.50000000E-01  8.50000000E-01  8.50000000E-01
  8.50000000E-01  8.50000000E-01  8.50000000E-01  8.50000000E-01  8.50000000E-01
  8.50000000E-01  8.50000000E-01  8.50000000E-01  8.50000000E-01  8.50000000E-01
  8.50000000E-01  8.50000000E-01  8.50000000E-01  8.50000000E-01  8.50000000E-01
  8.50000000E-01  8.50000000E-01  8.50000000E-01  8.50000000E-01  8.50000000E-01
  8.50000000E-01  8.50000000E-01  8.50000000E-01  8.50000000E-01  8.50000000E-01
  8.50000000E-01  8.50000000E-01  8.50000000E-01  8.50000000E-01  8.50000000E-01
  8.50000000E-01  8.50000000E-01  8.50000000E-01  8.50000000E-01  8.50000000E-01
  8.50000000E-01  8.50000000E-01  8.50000000E-01  8.50000000E-01  8.50000000E-01
  8.50000000E-01  8.50000000E-01  8.50000000E-01  8.50000000E-01  8.50000000E-01
  8.50000000E-01  8.50000000E-01  8.50000000E-01  8.50000000E-01  8.50000000E-01
  8.50000000E-01  8.50000000E-01  8.50000000E-01  8.50000000E-01  8.50000000E-01
  8.50000000E-01  8.50000000E-01  8.50000000E-01  8.50000000E-01  8.50000000E-01
  8.50000000E-01  8.50000000E-01  8.50000000E-01  8.50000000E-01  8.50000000E-01
  8.50000000E-01  8.50000000E-01  8.50000000E-01  8.50000000E-01  8.50000000E-01
  8.50000000E-01  8.50000000E-01  8.50000000E-01  8.50000000E-01  8.50000000E-01
  8.50000000E-01  8.50000000E-01  8.50000000E-01  8.50000000E-01  8.50000000E-01
  8.50000000E-01  8.50000000E-01  8.50000000E-01  8.50000000E-01  8.50000000E-01
  8.50000000E-01  8.50000000E-01  8.50000000E-01  8.50000000E-01  8.50000000E-01
  8.50000000E-01  8.50000000E-01  8.50000000E-01  8.50000000E-01  8.50000000E-01
  8.50000000E-01  8.50000000E-01  8.50000000E-01  8.50000000E-01  8.50000000E-01
  8.50000000E-01  8.50000000E-01  8.50000000E-01  8.50000000E-01  8.50000000E-01
  8.50000000E-01  8.50000000E-01  8.50000000E-01  8.50000000E-01  8.50000000E-01
  8.50000000E-01  8.50000000E-01  8.50000000E-01  8.50000000E-01  8.50000000E-01
  8.50000000E-01  8.50000000E-01  8.50000000E-01  8.50000000E-01  8.50000000E-01
  8.50000000E-01  8.50000000E-01  8.50000000E-01  8.50000000E-01  8.50000000E-01
  8.50000000E-01  8.50000000E-01  8.50000000E-01  8.50000000E-01  8.50000000E-01
  8.50000000E-01  8.50000000E-01  8.50000000E-01  8.50000000E-01  8.50000000E-01
  8.50000000E-01  8.50000000E-01  8.50000000E-01  8.50000000E-01  8.50000000E-01
  8.50000000E-01  8.50000000E-01  8.50000000E-01  8.50000000E-01  8.50000000E-01
  8.50000000E-01  8.50000000E-01  8.50000000E-01  8.50000000E-01  8.50000000E-01
  8.50000000E-01  8.50000000E-01  8.50000000E-01  8.50000000E-01  8.50000000E-01
  8.50000000E-01  8.50000000E-01  8.50000000E-01  8.50000000E-01  8.50000000E-01
  8.50000000E-01  8.50000000E-01  8.50000000E-01  8.50000000E-01  8.50000000E-01
  8.50000000E-01  8.50000000E-01  8.50000000E-01  8.50000000E-01  8.50000000E-01
  8.50000000E-01  8.50000000E-01  8.50000000E-01  8.50000000E-01  8.50000000E-01
  8.50000000E-01  8.50000000E-01  8.50000000E-01  8.50000000E-01  8.50000000E-01
  8.50000000E-01  8.50000000E-01  8.50000000E-01  8.50000000E-01  8.50000000E-01
  8.50000000E-01  8.50000000E-01  8.50000000E-01  8.50000000E-01  8.50000000E-01
  8.50000000E-01  8.50000000E-01  8.50000000E-01  8.50000000E-01  8.50000000E-01
  8.50000000E-01  8.50000000E-01  8.50000000E-01  8.50000000E-01  8.50000000E-01
  8.50000000E-01  8.50000000E-01  8.50000000E-01  8.50000000E-01  8.50000000E-01
  8.50000000E-01  8.50000000E-01  8.50000000E-01  8.50000000E-01  8.50000000E-01
  8.50000000E-01  8.50000000E-01  8.50000000E-01  8.50000000E-01  8.50000000E-01
  8.50000000E-01  8.50000000E-01  8.50000000E-01  8.50000000E-01  8.50000000E-01
  8.50000000E-01  8.50000000E-01  8.50000000E-01  8.50000000E-01  8.50000000E-01
  8.50000000E-01  8.50000000E-01  8.50000000E-01  8.50000000E-01  8.50000000E-01
  8.50000000E-01  8.50000000E-01  8.50000000E-01  8.50000000E-01  8.50000000E-01
  8.50000000E-01  8.50000000E-01  8.50000000E-01  8.50000000E-01  8.50000000E-01
  8.50000000E-01  8.50000000E-01  8.50000000E-01  8.50000000E-01  8.50000000E-01
  8.50000000E-01  8.50000000E-01  8.50000000E-01  8.50000000E-01  8.50000000E-01
  8.50000000E-01  8.50000000E-01  8.50000000E-01  8.50000000E-01  8.50000000E-01
  8.50000000E-01  8.50000000E-01  8.50000000E-01  8.50000000E-01  8.50000000E-01
  8.50000000E-01  8.50000000E-01  8.50000000E-01  8.50000000E-01  8.50000000E-01
  8.50000000E-01  8.50000000E-01  8.50000000E-01  8.50000000E-01  8.50000000E-01
  8.50000000E-01  8.50000000E-01  8.50000000E-01  8.50000000E-01  8.50000000E-01
  8.50000000E-01  8.50000000E-01  8.50000000E-01  8.50000000E-01  8.50000000E-01
  8.50000000E-01  8.50000000E-01  8.50000000E-01  8.50000000E-01  8.50000000E-01
  8.50000000E-01  8.50000000E-01  8.50000000E-01  8.50000000E-01  8.50000000E-01
  8.50000000E-01  8.50000000E-01  8.50000000E-01  8.50000000E-01  8.50000000E-01
  8.50000000E-01  8.50000000E-01  8.50000000E-01  8.50000000E-01  8.50000000E-01
  8.50000000E-01  8.50000000E-01  8.50000000E-01  8.50000000E-01  8.50000000E-01
  8.50000000E-01  8.50000000E-01  8.50000000E-01  8.50000000E-01  8.50000000E-01
  8.50000000E-01  8.50000000E-01  8.50000000E-01  8.50000000E-01  8.50000000E-01
  8.50000000E-01  8.50000000E-01  8.50000000E-01  8.50000000E-01  8.50000000E-01
  8.50000000E-01  8.50000000E-01  8.50000000E-01  8.50000000E-01  8.50000000E-01
  8.50000000E-01  8.50000000E-01  8.50000000E-01  8.50000000E-01  8.50000000E-01
  8.50000000E-01  8.50000000E-01  8.50000000E-01  8.50000000E-01  8.50000000E-01
  8.50000000E-01  8.50000000E-01  8.50000000E-01  8.50000000E-01  8.50000000E-01
  8.50000000E-01  8.50000000E-01  8.50000000E-01  8.50000000E-01  8.50000000E-01
  8.50000000E-01  8.50000000E-01  8.50000000E-01  8.50000000E-01  8.50000000E-01
  8.50000000E-01  8.50000000E-01  8.50000000E-01  8.50000000E-01  8.50000000E-01
  8.50000000E-01  8.50000000E-01  8.50000000E-01  8.50000000E-01  8.50000000E-01
  8.50000000E-01  8.50000000E-01  8.50000000E-01  8.50000000E-01  8.50000000E-01
  8.50000000E-01  8.50000000E-01  8.50000000E-01  8.50000000E-01  8.50000000E-01
  8.50000000E-01  8.50000000E-01  8.50000000E-01  8.50000000E-01  8.50000000E-01
  8.50000000E-01  8.50000000E-01  8.50000000E-01  8.50000000E-01  8.50000000E-01
  8.50000000E-01  8.50000000E-01  8.50000000E-01  8.50000000E-01  8.50000000E-01
  8.50000000E-01  8.50000000E-01  8.50000000E-01  8.50000000E-01  8.50000000E-01
  8.50000000E-01  8.50000000E-01  8.50000000E-01  8.50000000E-01  8.50000000E-01
  8.50000000E-01  8.50000000E-01  8.50000000E-01  8.50000000E-01  8.50000000E-01
  8.50000000E-01  8.50000000E-01  8.50000000E-01  8.50000000E-01  8.50000000E-01
  8.50000000E-01  8.50000000E-01  8.50000000E-01  8.50000000E-01  8.50000000E-01
  8.50000000E-01  8.50000000E-01  8.50000000E-01  8.50000000E-01  8.50000000E-01
  8.50000000E-01  8.50000000E-01  8.50000000E-01  8.50000000E-01  8.50000000E-01
  8.50000000E-01  8.50000000E-01  8.50000000E-01  8.50000000E-01  8.50000000E-01
  8.50000000E-01  8.50000000E-01  8.50000000E-01  8.50000000E-01  8.50000000E-01
  8.50000000E-01  8.50000000E-01  8.50000000E-01  8.50000000E-01  8.50000000E-01
  8.50000000E-01  8.50000000E-01  8.50000000E-01  8.50000000E-01  8.50000000E-01
  8.50000000E-01  8.50000000E-01  8.50000000E-01  8.50000000E-01  8.50000000E-01
  8.50000000E-01  8.50000000E-01  8.50000000E-01  8.50000000E-01  8.50000000E-01
  8.50000000E-01  8.50000000E-01  8.50000000E-01  8.50000000E-01  8.50000000E-01
  8.50000000E-01  8.50000000E-01  8.50000000E-01  8.50000000E-01  8.50000000E-01
  8.50000000E-01  8.50000000E-01  8.50000000E-01  8.50000000E-01  8.50000000E-01
  8.50000000E-01  8.50000000E-01  8.50000000E-01  8.50000000E-01  8.50000000E-01
  8.50000000E-01  8.50000000E-01  8.50000000E-01  8.50000000E-01  8.50000000E-01
  8.50000000E-01  8.50000000E-01  8.50000000E-01  8.50000000E-01  8.50000000E-01
  8.50000000E-01  8.50000000E-01  8.50000000E-01  8.50000000E-01  8.50000000E-01
  8.50000000E-01  8.50000000E-01  8.50000000E-01  8.50000000E-01  8.50000000E-01
  8.50000000E-01  8.50000000E-01  8.50000000E-01  8.50000000E-01  8.50000000E-01
  8.50000000E-01  8.50000000E-01  8.50000000E-01  8.50000000E-01  8.50000000E-01
  8.50000000E-01  8.50000000E-01  8.50000000E-01  8.50000000E-01  8.50000000E-01
  8.50000000E-01  8.50000000E-01  8.50000000E-01  8.50000000E-01  8.50000000E-01
  8.50000000E-01  8.50000000E-01  8.50000000E-01  8.50000000E-01  8.50000000E-01
  8.50000000E-01  8.50000000E-01  8.50000000E-01  8.50000000E-01  8.50000000E-01
  8.50000000E-01  8.50000000E-01  8.50000000E-01  8.50000000E-01  8.50000000E-01
  8.50000000E-01  8.50000000E-01  8.50000000E-01  8.50000000E-01  8.50000000E-01
  8.50000000E-01  8.50000000E-01  8.50000000E-01  8.50000000E-01  8.50000000E-01
  8.50000000E-01  8.50000000E-01  8.50000000E-01  8.50000000E-01  8.50000000E-01
  8.50000000E-01  8.50000000E-01  8.50000000E-01  8.50000000E-01  8.50000000E-01
  8.50000000E-01  8.50000000E-01  8.50000000E-01  8.50000000E-01  8.50000000E-01
  8.50000000E-01  8.50000000E-01  8.50000000E-01  8.50000000E-01  8.50000000E-01
  8.50000000E-01  8.50000000E-01  8.50000000E-01  8.50000000E-01  8.50000000E-01
  8.50000000E-01  8.50000000E-01  8.50000000E-01  8.50000000E-01  8.50000000E-01
  8.50000000E-01  8.50000000E-01  8.50000000E-01  8.50000000E-01  8.50000000E-01
  8.50000000E-01  8.50000000E-01  8.50000000E-01  8.50000000E-01  8.50000000E-01
  8.50000000E-01  8.50000000E-01  8.50000000E-01  8.50000000E-01  8.50000000E-01
  8.50000000E-01  8.50000000E-01  8.50000000E-01  8.50000000E-01  8.50000000E-01
  8.50000000E-01  8.50000000E-01  8.50000000E-01  8.50000000E-01  8.50000000E-01
  8.50000000E-01  8.50000000E-01  8.50000000E-01  8.50000000E-01  8.50000000E-01
  8.50000000E-01  8.50000000E-01  8.50000000E-01  8.50000000E-01  8.50000000E-01
  8.50000000E-01  8.50000000E-01  8.50000000E-01  8.50000000E-01  8.50000000E-01
  8.50000000E-01  8.50000000E-01  8.50000000E-01  8.50000000E-01  8.50000000E-01
  8.50000000E-01  8.50000000E-01  8.50000000E-01  8.50000000E-01  8.50000000E-01
  8.50000000E-01  8.50000000E-01  8.50000000E-01  8.50000000E-01  8.50000000E-01
  8.50000000E-01  8.50000000E-01  8.50000000E-01  8.50000000E-01  8.50000000E-01
  8.50000000E-01  8.50000000E-01  8.50000000E-01  8.50000000E-01  8.50000000E-01
  8.50000000E-01  8.50000000E-01  8.50000000E-01  8.50000000E-01  8.50000000E-01
  8.50000000E-01  8.50000000E-01  8.50000000E-01  8.50000000E-01  8.50000000E-01
  8.50000000E-01  8.50000000E-01  8.50000000E-01  8.50000000E-01  8.50000000E-01
  8.50000000E-01  8.50000000E-01  8.50000000E-01  8.50000000E-01  8.50000000E-01
  8.50000000E-01  8.50000000E-01  8.50000000E-01  8.50000000E-01  8.50000000E-01
  8.50000000E-01  8.50000000E-01  8.50000000E-01  8.50000000E-01  8.50000000E-01
  8.50000000E-01  8.50000000E-01  8.50000000E-01  8.50000000E-01  8.50000000E-01
  8.50000000E-01  8.50000000E-01  8.50000000E-01  8.50000000E-01  8.50000000E-01
  8.50000000E-01  8.50000000E-01  8.50000000E-01  8.50000000E-01  8.50000000E-01
  8.50000000E-01  8.50000000E-01  8.50000000E-01  8.50000000E-01  8.50000000E-01
  8.50000000E-01  8.50000000E-01  8.50000000E-01  8.50000000E-01  8.50000000E-01
  8.50000000E-01  8.50000000E-01  8.50000000E-01  8.50000000E-01  8.50000000E-01
  8.50000000E-01  8.50000000E-01  8.50000000E-01  8.50000000E-01  8.50000000E-01
  8.50000000E-01  8.50000000E-01  8.50000000E-01  8.50000000E-01  8.50000000E-01
  8.50000000E-01  8.50000000E-01  8.50000000E-01  8.50000000E-01  8.50000000E-01
  8.50000000E-01  8.50000000E-01  8.50000000E-01  8.50000000E-01  8.50000000E-01
  8.50000000E-01  8.50000000E-01  8.50000000E-01  8.50000000E-01  8.50000000E-01
  8.50000000E-01  8.50000000E-01  8.50000000E-01  8.50000000E-01  8.50000000E-01
  8.50000000E-01  8.50000000E-01  8.50000000E-01  8.50000000E-01  8.50000000E-01
  8.50000000E-01  8.50000000E-01  8.50000000E-01  8.50000000E-01  8.50000000E-01
  8.50000000E-01  8.50000000E-01  8.50000000E-01  8.50000000E-01  8.50000000E-01
  8.50000000E-01  8.50000000E-01  8.50000000E-01  8.50000000E-01  8.50000000E-01
  8.50000000E-01  8.50000000E-01  8.50000000E-01  8.50000000E-01  8.50000000E-01
  8.50000000E-01  8.50000000E-01  8.50000000E-01  8.50000000E-01  8.50000000E-01
  8.50000000E-01  8.50000000E-01  8.50000000E-01  8.50000000E-01  8.50000000E-01
  8.50000000E-01  8.50000000E-01  8.50000000E-01  8.50000000E-01  8.50000000E-01
  8.50000000E-01  8.50000000E-01  8.50000000E-01  8.50000000E-01  8.50000000E-01
  8.50000000E-01  8.50000000E-01  8.50000000E-01  8.50000000E-01  8.50000000E-01
  8.50000000E-01  8.50000000E-01  8.50000000E-01  8.50000000E-01  8.50000000E-01
  8.50000000E-01  8.50000000E-01  8.50000000E-01  8.50000000E-01  8.50000000E-01
  8.50000000E-01  8.50000000E-01  8.50000000E-01  8.50000000E-01  8.50000000E-01
  8.50000000E-01  8.50000000E-01  8.50000000E-01  8.50000000E-01  8.50000000E-01
  8.50000000E-01  8.50000000E-01  8.50000000E-01  8.50000000E-01  8.50000000E-01
  8.50000000E-01  8.50000000E-01  8.50000000E-01  8.50000000E-01  8.50000000E-01
  8.50000000E-01  8.50000000E-01  8.50000000E-01  8.50000000E-01  8.50000000E-01
  8.50000000E-01  8.50000000E-01  8.50000000E-01  8.50000000E-01  8.50000000E-01
  8.50000000E-01  8.50000000E-01  8.50000000E-01  8.50000000E-01  8.50000000E-01
  8.50000000E-01  8.50000000E-01  8.50000000E-01  8.50000000E-01  8.50000000E-01
  8.50000000E-01  8.50000000E-01  8.50000000E-01  8.50000000E-01  8.50000000E-01
  8.50000000E-01  8.50000000E-01  8.50000000E-01  8.50000000E-01  8.50000000E-01
  8.50000000E-01  8.50000000E-01  8.50000000E-01  8.50000000E-01  8.50000000E-01
  8.50000000E-01  8.50000000E-01  8.50000000E-01  8.50000000E-01  8.50000000E-01
  8.50000000E-01  8.50000000E-01  8.50000000E-01  8.50000000E-01  8.50000000E-01
  8.50000000E-01  8.50000000E-01  8.50000000E-01  8.50000000E-01  8.50000000E-01
  8.50000000E-01  8.50000000E-01  8.50000000E-01  8.50000000E-01  8.50000000E-01
  8.50000000E-01  8.50000000E-01  8.50000000E-01  8.50000000E-01  8.50000000E-01
  8.50000000E-01  8.50000000E-01  8.50000000E-01  8.50000000E-01  8.50000000E-01
  8.50000000E-01  8.50000000E-01  8.50000000E-01  8.50000000E-01  8.50000000E-01
  8.50000000E-01  8.50000000E-01  8.50000000E-01  8.50000000E-01  8.50000000E-01
  8.50000000E-01  8.50000000E-01  8.50000000E-01  8.50000000E-01  8.50000000E-01
  8.50000000E-01  8.50000000E-01  8.50000000E-01  8.50000000E-01  8.50000000E-01
  8.50000000E-01  8.50000000E-01  8.50000000E-01  8.50000000E-01  8.50000000E-01
  8.50000000E-01  8.50000000E-01  8.50000000E-01  8.50000000E-01  8.50000000E-01
  8.50000000E-01  8.50000000E-01  8.50000000E-01  8.50000000E-01  8.50000000E-01
  8.50000000E-01  8.50000000E-01  8.50000000E-01  8.50000000E-01  8.50000000E-01
  8.50000000E-01  8.50000000E-01  8.50000000E-01  8.50000000E-01  8.50000000E-01
  8.50000000E-01  8.50000000E-01  8.50000000E-01  8.50000000E-01  8.50000000E-01
  8.50000000E-01  8.50000000E-01  8.50000000E-01  8.50000000E-01  8.50000000E-01
  8.50000000E-01  8.50000000E-01  8.50000000E-01  8.50000000E-01  8.50000000E-01
  8.50000000E-01  8.50000000E-01  8.50000000E-01  8.50000000E-01  8.50000000E-01
  8.50000000E-01  8.50000000E-01  8.50000000E-01  8.50000000E-01  8.50000000E-01
  8.50000000E-01  8.50000000E-01  8.50000000E-01  8.50000000E-01  8.50000000E-01
  8.50000000E-01  8.50000000E-01  8.50000000E-01  8.50000000E-01  8.50000000E-01
  8.50000000E-01  8.50000000E-01  8.50000000E-01  8.50000000E-01  8.50000000E-01
  8.50000000E-01  8.50000000E-01  8.50000000E-01  8.50000000E-01  8.50000000E-01
  8.50000000E-01  8.50000000E-01  8.50000000E-01  8.50000000E-01  8.50000000E-01
  8.50000000E-01  8.50000000E-01  8.50000000E-01  8.50000000E-01  8.50000000E-01
  8.50000000E-01  8.50000000E-01  8.50000000E-01  8.50000000E-01  8.50000000E-01
  8.50000000E-01  8.50000000E-01  8.50000000E-01  8.50000000E-01  8.50000000E-01
  8.50000000E-01  8.50000000E-01  8.50000000E-01  8.50000000E-01  8.50000000E-01
  8.50000000E-01  8.50000000E-01  8.50000000E-01  8.50000000E-01  8.50000000E-01
  8.50000000E-01  8.50000000E-01  8.50000000E-01  8.50000000E-01  8.50000000E-01
  8.50000000E-01  8.50000000E-01  8.50000000E-01  8.50000000E-01  8.50000000E-01
  8.50000000E-01  8.50000000E-01  8.50000000E-01  8.50000000E-01  8.50000000E-01
  8.50000000E-01  8.50000000E-01  8.50000000E-01  8.50000000E-01  8.50000000E-01
  8.50000000E-01  8.50000000E-01  8.50000000E-01  8.50000000E-01  8.50000000E-01
  8.50000000E-01  8.50000000E-01  8.50000000E-01  8.50000000E-01  8.50000000E-01
  8.50000000E-01  8.50000000E-01  8.50000000E-01  8.50000000E-01  8.50000000E-01
  8.50000000E-01  8.50000000E-01  8.50000000E-01  8.50000000E-01  8.50000000E-01
  8.50000000E-01  8.50000000E-01  8.50000000E-01  8.50000000E-01  8.50000000E-01
  8.50000000E-01  8.50000000E-01  8.50000000E-01  8.50000000E-01  8.50000000E-01
  8.50000000E-01  8.50000000E-01  8.50000000E-01  8.50000000E-01  8.50000000E-01
  8.50000000E-01  8.50000000E-01  8.50000000E-01  8.50000000E-01  8.50000000E-01
  8.50000000E-01  8.50000000E-01  8.50000000E-01  8.50000000E-01  8.50000000E-01
  8.50000000E-01  8.50000000E-01  8.50000000E-01  8.50000000E-01  8.50000000E-01
  8.50000000E-01  8.50000000E-01  8.50000000E-01  8.50000000E-01  8.50000000E-01
  8.50000000E-01  8.50000000E-01  8.50000000E-01  8.50000000E-01  8.50000000E-01
  8.50000000E-01  8.50000000E-01  8.50000000E-01  8.50000000E-01  8.50000000E-01
  8.50000000E-01  8.50000000E-01  8.50000000E-01  8.50000000E-01  8.50000000E-01
  8.50000000E-01  8.50000000E-01  8.50000000E-01  8.50000000E-01  8.50000000E-01
  8.50000000E-01  8.50000000E-01  8.50000000E-01  8.50000000E-01  8.50000000E-01
  8.50000000E-01  8.50000000E-01  8.50000000E-01  8.50000000E-01  8.50000000E-01
  8.50000000E-01  8.50000000E-01  8.50000000E-01  8.50000000E-01  8.50000000E-01
  8.50000000E-01  8.50000000E-01  8.50000000E-01  8.50000000E-01  8.50000000E-01
  8.50000000E-01  8.50000000E-01  8.50000000E-01  8.50000000E-01  8.50000000E-01
  8.50000000E-01  8.50000000E-01  8.50000000E-01  8.50000000E-01  8.50000000E-01
  8.50000000E-01  8.50000000E-01  8.50000000E-01  8.50000000E-01  8.50000000E-01
  8.50000000E-01  8.50000000E-01  8.50000000E-01  8.50000000E-01  8.50000000E-01
  8.50000000E-01  8.50000000E-01  8.50000000E-01  8.50000000E-01  8.50000000E-01
  8.50000000E-01  8.50000000E-01  8.50000000E-01  8.50000000E-01  8.50000000E-01
  8.50000000E-01  8.50000000E-01  8.50000000E-01  8.50000000E-01  8.50000000E-01
  8.50000000E-01  8.50000000E-01  8.50000000E-01  8.50000000E-01  8.50000000E-01
  8.50000000E-01  8.50000000E-01  8.50000000E-01  8.50000000E-01  8.50000000E-01
  8.50000000E-01  8.50000000E-01  8.50000000E-01  8.50000000E-01  8.50000000E-01
  8.50000000E-01  8.50000000E-01  8.50000000E-01  8.50000000E-01  8.50000000E-01
  8.50000000E-01  8.50000000E-01  8.50000000E-01  8.50000000E-01  8.50000000E-01
  8.50000000E-01  8.50000000E-01  8.50000000E-01  8.50000000E-01  8.50000000E-01
  8.50000000E-01  8.50000000E-01  8.50000000E-01  8.50000000E-01  8.50000000E-01
  8.50000000E-01  8.50000000E-01  8.50000000E-01  8.50000000E-01  8.50000000E-01
  8.50000000E-01  8.50000000E-01  8.50000000E-01  8.50000000E-01  8.50000000E-01
  8.50000000E-01  8.50000000E-01  8.50000000E-01  8.50000000E-01  8.50000000E-01
  8.50000000E-01  8.50000000E-01  8.50000000E-01  8.50000000E-01  8.50000000E-01
  8.50000000E-01  8.50000000E-01  8.50000000E-01  8.50000000E-01  8.50000000E-01
  8.50000000E-01  8.50000000E-01  8.50000000E-01  8.50000000E-01  8.50000000E-01
  8.50000000E-01  8.50000000E-01  8.50000000E-01  8.50000000E-01  8.50000000E-01
  8.50000000E-01  8.50000000E-01  8.50000000E-01  8.50000000E-01  8.50000000E-01
  8.50000000E-01  8.50000000E-01  8.50000000E-01  8.50000000E-01  8.50000000E-01
  8.50000000E-01  8.50000000E-01  8.50000000E-01  8.50000000E-01  8.50000000E-01
  8.50000000E-01  8.50000000E-01  8.50000000E-01  8.50000000E-01  8.50000000E-01
  8.50000000E-01  8.50000000E-01  8.50000000E-01  8.50000000E-01  8.50000000E-01
  8.50000000E-01  8.50000000E-01  8.50000000E-01  8.50000000E-01  8.50000000E-01
  8.50000000E-01  8.50000000E-01  8.50000000E-01  8.50000000E-01  8.50000000E-01
  8.50000000E-01  8.50000000E-01  8.50000000E-01  8.50000000E-01  8.50000000E-01
  8.50000000E-01  8.50000000E-01  8.50000000E-01  8.50000000E-01  8.50000000E-01
  8.50000000E-01  8.50000000E-01  8.50000000E-01  8.50000000E-01  8.50000000E-01
  8.50000000E-01  8.50000000E-01  8.50000000E-01  8.50000000E-01  8.50000000E-01
  8.50000000E-01  8.50000000E-01  8.50000000E-01  8.50000000E-01  8.50000000E-01
  8.50000000E-01  8.50000000E-01  8.50000000E-01  8.50000000E-01  8.50000000E-01
  8.50000000E-01  8.50000000E-01  8.50000000E-01  8.50000000E-01  8.50000000E-01
  8.50000000E-01  8.50000000E-01  8.50000000E-01  8.50000000E-01  8.50000000E-01
  8.50000000E-01  8.50000000E-01  8.50000000E-01  8.50000000E-01  8.50000000E-01
  8.50000000E-01  8.50000000E-01  8.50000000E-01  8.50000000E-01  8.50000000E-01
  8.50000000E-01  8.50000000E-01  8.50000000E-01  8.50000000E-01  8.50000000E-01
  8.50000000E-01  8.50000000E-01  8.50000000E-01  8.50000000E-01  8.50000000E-01
  8.50000000E-01  8.50000000E-01  8.50000000E-01  8.50000000E-01  8.50000000E-01
  8.50000000E-01  8.50000000E-01  8.50000000E-01  8.50000000E-01  8.50000000E-01
  8.50000000E-01  8.50000000E-01  8.50000000E-01  8.50000000E-01  8.50000000E-01
  8.50000000E-01  8.50000000E-01  8.50000000E-01  8.50000000E-01  8.50000000E-01
  8.50000000E-01  8.50000000E-01  8.50000000E-01  8.50000000E-01  8.50000000E-01
  8.50000000E-01  8.50000000E-01  8.50000000E-01  8.50000000E-01  8.50000000E-01
  8.50000000E-01  8.50000000E-01  8.50000000E-01  8.50000000E-01  8.50000000E-01
  8.50000000E-01  8.50000000E-01  8.50000000E-01  8.50000000E-01  8.50000000E-01
  8.50000000E-01  8.50000000E-01  8.50000000E-01  8.50000000E-01  8.50000000E-01
  8.50000000E-01  8.50000000E-01  8.50000000E-01  8.50000000E-01  8.50000000E-01
  8.50000000E-01  8.50000000E-01  8.50000000E-01  8.50000000E-01  8.50000000E-01
  8.50000000E-01  8.50000000E-01  8.50000000E-01  8.50000000E-01  8.50000000E-01
  8.50000000E-01  8.50000000E-01  8.50000000E-01  8.50000000E-01  8.50000000E-01
  8.50000000E-01  8.50000000E-01  8.50000000E-01  8.50000000E-01  8.50000000E-01
  8.50000000E-01  8.50000000E-01  8.50000000E-01  8.50000000E-01  8.50000000E-01
  8.50000000E-01  8.50000000E-01  8.50000000E-01  8.50000000E-01  8.50000000E-01
  8.50000000E-01  8.50000000E-01  8.50000000E-01  8.50000000E-01  8.50000000E-01
  8.50000000E-01  8.50000000E-01  8.50000000E-01  8.50000000E-01  8.50000000E-01
  8.50000000E-01  8.50000000E-01  8.50000000E-01  8.50000000E-01  8.50000000E-01
  8.50000000E-01  8.50000000E-01  8.50000000E-01  8.50000000E-01  8.50000000E-01
  8.50000000E-01  8.50000000E-01  8.50000000E-01  8.50000000E-01  8.50000000E-01
  8.50000000E-01  8.50000000E-01  8.50000000E-01  8.50000000E-01  8.50000000E-01
  8.50000000E-01  8.50000000E-01  8.50000000E-01  8.50000000E-01  8.50000000E-01
  8.50000000E-01  8.50000000E-01  8.50000000E-01  8.50000000E-01  8.50000000E-01
  8.50000000E-01  8.50000000E-01  8.50000000E-01  8.50000000E-01  8.50000000E-01
  8.50000000E-01  8.50000000E-01  8.50000000E-01  8.50000000E-01  8.50000000E-01
  8.50000000E-01  8.50000000E-01  8.50000000E-01  8.50000000E-01  8.50000000E-01
  8.50000000E-01  8.50000000E-01  8.50000000E-01  8.50000000E-01  8.50000000E-01
  8.50000000E-01  8.50000000E-01  8.50000000E-01  8.50000000E-01  8.50000000E-01
  8.50000000E-01  8.50000000E-01  8.50000000E-01  8.50000000E-01  8.50000000E-01
  8.50000000E-01  8.50000000E-01  8.50000000E-01  8.50000000E-01  8.50000000E-01
  8.50000000E-01  8.50000000E-01  8.50000000E-01  8.50000000E-01  8.50000000E-01
  8.50000000E-01  8.50000000E-01  8.50000000E-01  8.50000000E-01  8.50000000E-01
  8.50000000E-01  8.50000000E-01  8.50000000E-01  8.50000000E-01  8.50000000E-01
  8.50000000E-01  8.50000000E-01  8.50000000E-01  8.50000000E-01  8.50000000E-01
  8.50000000E-01  8.50000000E-01  8.50000000E-01  8.50000000E-01  8.50000000E-01
  8.50000000E-01  8.50000000E-01  8.50000000E-01  8.50000000E-01  8.50000000E-01
  8.50000000E-01  8.50000000E-01  8.50000000E-01  8.50000000E-01  8.50000000E-01
  8.50000000E-01  8.50000000E-01  8.50000000E-01  8.50000000E-01  8.50000000E-01
  8.50000000E-01  8.50000000E-01  8.50000000E-01  8.50000000E-01  8.50000000E-01
  8.50000000E-01  8.50000000E-01  8.50000000E-01  8.50000000E-01  8.50000000E-01
  8.50000000E-01  8.50000000E-01  8.50000000E-01  8.50000000E-01  8.50000000E-01
  8.50000000E-01  8.50000000E-01  8.50000000E-01  8.50000000E-01  8.50000000E-01
  8.50000000E-01  8.50000000E-01  8.50000000E-01  8.50000000E-01  8.50000000E-01
  8.50000000E-01  8.50000000E-01  8.50000000E-01  8.50000000E-01  8.50000000E-01
  8.50000000E-01  8.50000000E-01  8.50000000E-01  8.50000000E-01  8.50000000E-01
  8.50000000E-01  8.50000000E-01  8.50000000E-01  8.50000000E-01  8.50000000E-01
  8.50000000E-01  8.50000000E-01  8.50000000E-01  8.50000000E-01  8.50000000E-01
  8.50000000E-01  8.50000000E-01  8.50000000E-01  8.50000000E-01  8.50000000E-01
  8.50000000E-01  8.50000000E-01  8.50000000E-01  8.50000000E-01  8.50000000E-01
  8.50000000E-01  8.50000000E-01  8.50000000E-01  8.50000000E-01  8.50000000E-01
  8.50000000E-01  8.50000000E-01  8.50000000E-01  8.50000000E-01  8.50000000E-01
  8.50000000E-01  8.50000000E-01  8.50000000E-01  8.50000000E-01  8.50000000E-01
  8.50000000E-01  8.50000000E-01  8.50000000E-01  8.50000000E-01  8.50000000E-01
  8.50000000E-01  8.50000000E-01  8.50000000E-01  8.50000000E-01  8.50000000E-01
  8.50000000E-01  8.50000000E-01  8.50000000E-01  8.50000000E-01  8.50000000E-01
  8.50000000E-01  8.50000000E-01  8.50000000E-01  8.50000000E-01  8.50000000E-01
  8.50000000E-01  8.50000000E-01  8.50000000E-01  8.50000000E-01  8.50000000E-01
  8.50000000E-01  8.50000000E-01  8.50000000E-01  8.50000000E-01  8.50000000E-01
  8.50000000E-01  8.50000000E-01  8.50000000E-01  8.50000000E-01  8.50000000E-01
  8.50000000E-01  8.50000000E-01  8.50000000E-01  8.50000000E-01  8.50000000E-01
  8.50000000E-01  8.50000000E-01  8.50000000E-01  8.50000000E-01  8.50000000E-01
  8.50000000E-01  8.50000000E-01  8.50000000E-01  8.50000000E-01  8.50000000E-01
  8.50000000E-01  8.50000000E-01  8.50000000E-01  8.50000000E-01  8.50000000E-01
  8.50000000E-01  8.50000000E-01  8.50000000E-01  8.50000000E-01  8.50000000E-01
  8.50000000E-01  8.50000000E-01  8.50000000E-01  8.50000000E-01  8.50000000E-01
  8.50000000E-01  8.50000000E-01  8.50000000E-01  8.50000000E-01  8.50000000E-01
  8.50000000E-01  8.50000000E-01  8.50000000E-01  8.50000000E-01  8.50000000E-01
  8.50000000E-01  8.50000000E-01  8.50000000E-01  8.50000000E-01  8.50000000E-01
  8.50000000E-01  8.50000000E-01  8.50000000E-01  8.50000000E-01  8.50000000E-01
  8.50000000E-01  8.50000000E-01  8.50000000E-01  8.50000000E-01  8.50000000E-01
  8.50000000E-01  8.50000000E-01  8.50000000E-01  8.50000000E-01  8.50000000E-01
  8.50000000E-01  8.50000000E-01  8.50000000E-01  8.50000000E-01  8.50000000E-01
  8.50000000E-01  8.50000000E-01  8.50000000E-01  8.50000000E-01  8.50000000E-01
  8.50000000E-01  8.50000000E-01  8.50000000E-01  8.50000000E-01  8.50000000E-01
  8.50000000E-01  8.50000000E-01  8.50000000E-01  8.50000000E-01  8.50000000E-01
  8.50000000E-01  8.50000000E-01  8.50000000E-01  8.50000000E-01  8.50000000E-01
  8.50000000E-01  8.50000000E-01  8.50000000E-01  8.50000000E-01  8.50000000E-01
  8.50000000E-01  8.50000000E-01  8.50000000E-01  8.50000000E-01  8.50000000E-01
  8.50000000E-01  8.50000000E-01  8.50000000E-01  8.50000000E-01  8.50000000E-01
  8.50000000E-01  8.50000000E-01  8.50000000E-01  8.50000000E-01  8.50000000E-01
  8.50000000E-01  8.50000000E-01  8.50000000E-01  8.50000000E-01  8.50000000E-01
  8.50000000E-01  8.50000000E-01  8.50000000E-01  8.50000000E-01  8.50000000E-01
  8.50000000E-01  8.50000000E-01  8.50000000E-01  8.50000000E-01  8.50000000E-01
  8.50000000E-01  8.50000000E-01  8.50000000E-01  8.50000000E-01  8.50000000E-01
  8.50000000E-01  8.50000000E-01  8.50000000E-01  8.50000000E-01  8.50000000E-01
  8.50000000E-01  8.50000000E-01  8.50000000E-01  8.50000000E-01  8.50000000E-01
  8.50000000E-01  8.50000000E-01  8.50000000E-01  8.50000000E-01  8.50000000E-01
  8.50000000E-01  8.50000000E-01  8.50000000E-01  8.50000000E-01  8.50000000E-01
  8.50000000E-01  8.50000000E-01  8.50000000E-01  8.50000000E-01  8.50000000E-01
  8.50000000E-01  8.50000000E-01  8.50000000E-01  8.50000000E-01  8.50000000E-01
  8.50000000E-01  8.50000000E-01  8.50000000E-01  8.50000000E-01  8.50000000E-01
  8.50000000E-01  8.50000000E-01  8.50000000E-01  8.50000000E-01  8.50000000E-01
  8.50000000E-01  8.50000000E-01  8.50000000E-01  8.50000000E-01  8.50000000E-01
  8.50000000E-01  8.50000000E-01  8.50000000E-01  8.50000000E-01  8.50000000E-01
  8.50000000E-01  8.50000000E-01  8.50000000E-01  8.50000000E-01  8.50000000E-01
  8.50000000E-01  8.50000000E-01  8.50000000E-01  8.50000000E-01  8.50000000E-01
  8.50000000E-01  8.50000000E-01  8.50000000E-01  8.50000000E-01  8.50000000E-01
  8.50000000E-01  8.50000000E-01  8.50000000E-01  8.50000000E-01  8.50000000E-01
  8.50000000E-01  8.50000000E-01  8.50000000E-01  8.50000000E-01  8.50000000E-01
  8.50000000E-01  8.50000000E-01  8.50000000E-01  8.50000000E-01  8.50000000E-01
  8.50000000E-01  8.50000000E-01  8.50000000E-01  8.50000000E-01  8.50000000E-01
  8.50000000E-01  8.50000000E-01  8.50000000E-01  8.50000000E-01  8.50000000E-01
  8.50000000E-01  8.50000000E-01  8.50000000E-01  8.50000000E-01  8.50000000E-01
  8.50000000E-01  8.50000000E-01  8.50000000E-01  8.50000000E-01  8.50000000E-01
  8.50000000E-01  8.50000000E-01  8.50000000E-01  8.50000000E-01  8.50000000E-01
  8.50000000E-01  8.50000000E-01  8.50000000E-01  8.50000000E-01  8.50000000E-01
  8.50000000E-01  8.50000000E-01  8.50000000E-01  8.50000000E-01  8.50000000E-01
  8.50000000E-01  8.50000000E-01  8.50000000E-01  8.50000000E-01  8.50000000E-01
  8.50000000E-01  8.50000000E-01  8.50000000E-01  8.50000000E-01  8.50000000E-01
  8.50000000E-01  8.50000000E-01  8.50000000E-01  8.50000000E-01  8.50000000E-01
  8.50000000E-01  8.50000000E-01  8.50000000E-01  8.50000000E-01  8.50000000E-01
  8.50000000E-01  8.50000000E-01  8.50000000E-01  8.50000000E-01  8.50000000E-01
  8.50000000E-01  8.50000000E-01  8.50000000E-01  8.50000000E-01  8.50000000E-01
  8.50000000E-01  8.50000000E-01  8.50000000E-01  8.50000000E-01  8.50000000E-01
  8.50000000E-01  8.50000000E-01  8.50000000E-01  8.50000000E-01  8.50000000E-01
  8.50000000E-01  8.50000000E-01  8.50000000E-01  8.50000000E-01  8.50000000E-01
  8.50000000E-01  8.50000000E-01  8.50000000E-01  8.50000000E-01  8.50000000E-01
  8.50000000E-01  8.50000000E-01  8.50000000E-01  8.50000000E-01  8.50000000E-01
  8.50000000E-01  8.50000000E-01  8.50000000E-01  8.50000000E-01  8.50000000E-01
  8.50000000E-01  8.50000000E-01  8.50000000E-01  8.50000000E-01  8.50000000E-01
  8.50000000E-01  8.50000000E-01  8.50000000E-01  8.50000000E-01  8.50000000E-01
  8.50000000E-01  8.50000000E-01  8.50000000E-01  8.50000000E-01  8.50000000E-01
  8.50000000E-01  8.50000000E-01  8.50000000E-01  8.50000000E-01  8.50000000E-01
  8.50000000E-01  8.50000000E-01  8.50000000E-01  8.50000000E-01  8.50000000E-01
  8.50000000E-01  8.50000000E-01  8.50000000E-01  8.50000000E-01  8.50000000E-01
  8.50000000E-01  8.50000000E-01  8.50000000E-01  8.50000000E-01  8.50000000E-01
  8.50000000E-01  8.50000000E-01  8.50000000E-01  8.50000000E-01  8.50000000E-01
  8.50000000E-01  8.50000000E-01  8.50000000E-01  8.50000000E-01  8.50000000E-01
  8.50000000E-01  8.50000000E-01  8.50000000E-01  8.50000000E-01  8.50000000E-01
  8.50000000E-01  8.50000000E-01  8.50000000E-01  8.50000000E-01  8.50000000E-01
  8.50000000E-01  8.50000000E-01  8.50000000E-01  8.50000000E-01  8.50000000E-01
  8.50000000E-01  8.50000000E-01  8.50000000E-01  8.50000000E-01  8.50000000E-01
  8.50000000E-01  8.50000000E-01  8.50000000E-01  8.50000000E-01  8.50000000E-01
  8.50000000E-01  8.50000000E-01  8.50000000E-01  8.50000000E-01  8.50000000E-01
  8.50000000E-01  8.50000000E-01  8.50000000E-01  8.50000000E-01  8.50000000E-01
  8.50000000E-01  8.50000000E-01  8.50000000E-01  8.50000000E-01  8.50000000E-01
  8.50000000E-01  8.50000000E-01  8.50000000E-01  8.50000000E-01  8.50000000E-01
  8.50000000E-01  8.50000000E-01  8.50000000E-01  8.50000000E-01  8.50000000E-01
  8.50000000E-01  8.50000000E-01  8.50000000E-01  8.50000000E-01  8.50000000E-01
  8.50000000E-01  8.50000000E-01  8.50000000E-01  8.50000000E-01  8.50000000E-01
  8.50000000E-01  8.50000000E-01  8.50000000E-01  8.50000000E-01  8.50000000E-01
  8.50000000E-01  8.50000000E-01  8.50000000E-01  8.50000000E-01  8.50000000E-01
  8.50000000E-01  8.50000000E-01  8.50000000E-01  8.50000000E-01  8.50000000E-01
  8.50000000E-01  8.50000000E-01  8.50000000E-01  8.50000000E-01  8.50000000E-01
  8.50000000E-01  8.50000000E-01  8.50000000E-01  8.50000000E-01  8.50000000E-01
  8.50000000E-01  8.50000000E-01  8.50000000E-01  8.50000000E-01  8.50000000E-01
  8.50000000E-01  8.50000000E-01  8.50000000E-01  8.50000000E-01  8.50000000E-01
  8.50000000E-01  8.50000000E-01  8.50000000E-01  8.50000000E-01  8.50000000E-01
  8.50000000E-01  8.50000000E-01  8.50000000E-01  8.50000000E-01  8.50000000E-01
  8.50000000E-01  8.50000000E-01  8.50000000E-01  8.50000000E-01  8.50000000E-01
  8.50000000E-01  8.50000000E-01  8.50000000E-01  8.50000000E-01  8.50000000E-01
  8.50000000E-01  8.50000000E-01  8.50000000E-01  8.50000000E-01  8.50000000E-01
  8.50000000E-01  8.50000000E-01  8.50000000E-01  8.50000000E-01  8.50000000E-01
  8.50000000E-01  8.50000000E-01  8.50000000E-01  8.50000000E-01  8.50000000E-01
  8.50000000E-01  8.50000000E-01  8.50000000E-01  8.50000000E-01  8.50000000E-01
  8.50000000E-01  8.50000000E-01  8.50000000E-01  8.50000000E-01  8.50000000E-01
  8.50000000E-01  8.50000000E-01  8.50000000E-01  8.50000000E-01  8.50000000E-01
  8.50000000E-01  8.50000000E-01  8.50000000E-01  8.50000000E-01  8.50000000E-01
  8.50000000E-01  8.50000000E-01  8.50000000E-01  8.50000000E-01  8.50000000E-01
  8.50000000E-01  8.50000000E-01  8.50000000E-01  8.50000000E-01  8.50000000E-01
  8.50000000E-01  8.50000000E-01  8.50000000E-01  8.50000000E-01  8.50000000E-01
  8.50000000E-01  8.50000000E-01  8.50000000E-01  8.50000000E-01  8.50000000E-01
  8.50000000E-01  8.50000000E-01  8.50000000E-01  8.50000000E-01  8.50000000E-01
  8.50000000E-01  8.50000000E-01  8.50000000E-01  8.50000000E-01  8.50000000E-01
  8.50000000E-01  8.50000000E-01  8.50000000E-01  8.50000000E-01  8.50000000E-01
  8.50000000E-01  8.50000000E-01  8.50000000E-01  8.50000000E-01  8.50000000E-01
  8.50000000E-01  8.50000000E-01  8.50000000E-01  8.50000000E-01  8.50000000E-01
  8.50000000E-01  8.50000000E-01  8.50000000E-01  8.50000000E-01  8.50000000E-01
  8.50000000E-01  8.50000000E-01  8.50000000E-01  8.50000000E-01  8.50000000E-01
  8.50000000E-01  8.50000000E-01  8.50000000E-01  8.50000000E-01  8.50000000E-01
  8.50000000E-01  8.50000000E-01  8.50000000E-01  8.50000000E-01  8.50000000E-01
  8.50000000E-01  8.50000000E-01  8.50000000E-01  8.50000000E-01  8.50000000E-01
  8.50000000E-01  8.50000000E-01  8.50000000E-01  8.50000000E-01  8.50000000E-01
  8.50000000E-01  8.50000000E-01  8.50000000E-01  8.50000000E-01  8.50000000E-01
  8.50000000E-01  8.50000000E-01  8.50000000E-01  8.50000000E-01  8.50000000E-01
  8.50000000E-01  8.50000000E-01  8.50000000E-01  8.50000000E-01  8.50000000E-01
  8.50000000E-01  8.50000000E-01  8.50000000E-01  8.50000000E-01  8.50000000E-01
  8.50000000E-01  8.50000000E-01  8.50000000E-01  8.50000000E-01  8.50000000E-01
  8.50000000E-01  8.50000000E-01  8.50000000E-01  8.50000000E-01  8.50000000E-01
  8.50000000E-01  8.50000000E-01  8.50000000E-01  8.50000000E-01  8.50000000E-01
  8.50000000E-01  8.50000000E-01  8.50000000E-01  8.50000000E-01  8.50000000E-01
  8.50000000E-01  8.50000000E-01  8.50000000E-01  8.50000000E-01  8.50000000E-01
  8.50000000E-01  8.50000000E-01  8.50000000E-01  8.50000000E-01  8.50000000E-01
  8.50000000E-01  8.50000000E-01  8.50000000E-01  8.50000000E-01  8.50000000E-01
  8.50000000E-01  8.50000000E-01  8.50000000E-01  8.50000000E-01  8.50000000E-01
  8.50000000E-01  8.50000000E-01  8.50000000E-01  8.50000000E-01  8.50000000E-01
  8.50000000E-01  8.50000000E-01  8.50000000E-01  8.50000000E-01  8.50000000E-01
  8.50000000E-01  8.50000000E-01  8.50000000E-01  8.50000000E-01  8.50000000E-01
  8.50000000E-01  8.50000000E-01  8.50000000E-01  8.50000000E-01  8.50000000E-01
  8.50000000E-01  8.50000000E-01  8.50000000E-01  8.50000000E-01  8.50000000E-01
  8.50000000E-01  8.50000000E-01  8.50000000E-01  8.50000000E-01  8.50000000E-01
  8.50000000E-01  8.50000000E-01  8.50000000E-01  8.50000000E-01  8.50000000E-01
  8.50000000E-01  8.50000000E-01  8.50000000E-01  8.50000000E-01  8.50000000E-01
  8.50000000E-01  8.50000000E-01  8.50000000E-01  8.50000000E-01  8.50000000E-01
  8.50000000E-01  8.50000000E-01  8.50000000E-01  8.50000000E-01  8.50000000E-01
  8.50000000E-01  8.50000000E-01  8.50000000E-01  8.50000000E-01  8.50000000E-01
  8.50000000E-01  8.50000000E-01  8.50000000E-01  8.50000000E-01  8.50000000E-01
  8.50000000E-01  8.50000000E-01  8.50000000E-01  8.50000000E-01  8.50000000E-01
  8.50000000E-01  8.50000000E-01  8.50000000E-01  8.50000000E-01  8.50000000E-01
  8.50000000E-01  8.50000000E-01  8.50000000E-01  8.50000000E-01  8.50000000E-01
  8.50000000E-01  8.50000000E-01  8.50000000E-01  8.50000000E-01  8.50000000E-01
  8.50000000E-01  8.50000000E-01  8.50000000E-01  8.50000000E-01  8.50000000E-01
  8.50000000E-01  8.50000000E-01  8.50000000E-01  8.50000000E-01  8.50000000E-01
  8.50000000E-01  8.50000000E-01  8.50000000E-01  8.50000000E-01  8.50000000E-01
  8.50000000E-01  8.50000000E-01  8.50000000E-01  8.50000000E-01  8.50000000E-01
  8.50000000E-01  8.50000000E-01  8.50000000E-01  8.50000000E-01  8.50000000E-01
  8.50000000E-01  8.50000000E-01  8.50000000E-01  8.50000000E-01  8.50000000E-01
  8.50000000E-01  8.50000000E-01  8.50000000E-01  8.50000000E-01  8.50000000E-01
  8.50000000E-01  8.50000000E-01  8.50000000E-01  8.50000000E-01  8.50000000E-01
  8.50000000E-01  8.50000000E-01  8.50000000E-01  8.50000000E-01  8.50000000E-01
  8.50000000E-01  8.50000000E-01  8.50000000E-01  8.50000000E-01  8.50000000E-01
  8.50000000E-01  8.50000000E-01  8.50000000E-01  8.50000000E-01  8.50000000E-01
  8.50000000E-01  8.50000000E-01  8.50000000E-01  8.50000000E-01  8.50000000E-01
  8.50000000E-01  8.50000000E-01  8.50000000E-01  8.50000000E-01  8.50000000E-01
  8.50000000E-01  8.50000000E-01  8.50000000E-01  8.50000000E-01  8.50000000E-01
  8.50000000E-01  8.50000000E-01  8.50000000E-01  8.50000000E-01  8.50000000E-01
  8.50000000E-01  8.50000000E-01  8.50000000E-01  8.50000000E-01  8.50000000E-01
  8.50000000E-01  8.50000000E-01  8.50000000E-01  8.50000000E-01  8.50000000E-01
  8.50000000E-01  8.50000000E-01  8.50000000E-01  8.50000000E-01  8.50000000E-01
  8.50000000E-01  8.50000000E-01  8.50000000E-01  8.50000000E-01  8.50000000E-01
  8.50000000E-01  8.50000000E-01  8.50000000E-01  8.50000000E-01  8.50000000E-01
  8.50000000E-01  8.50000000E-01  8.50000000E-01  8.50000000E-01  8.50000000E-01
  8.50000000E-01  8.50000000E-01  8.50000000E-01  8.50000000E-01  8.50000000E-01
  8.50000000E-01  8.50000000E-01  8.50000000E-01  8.50000000E-01  8.50000000E-01
  8.50000000E-01  8.50000000E-01  8.50000000E-01  8.50000000E-01  8.50000000E-01
  8.50000000E-01  8.50000000E-01  8.50000000E-01  8.50000000E-01  8.50000000E-01
  8.50000000E-01  8.50000000E-01  8.50000000E-01  8.50000000E-01  8.50000000E-01
  8.50000000E-01  8.50000000E-01  8.50000000E-01  8.50000000E-01  8.50000000E-01
  8.50000000E-01  8.50000000E-01  8.50000000E-01  8.50000000E-01  8.50000000E-01
  8.50000000E-01  8.50000000E-01  8.50000000E-01  8.50000000E-01  8.50000000E-01
  8.50000000E-01  8.50000000E-01  8.50000000E-01  8.50000000E-01  8.50000000E-01
  8.50000000E-01  8.50000000E-01  8.50000000E-01  8.50000000E-01  8.50000000E-01
  8.50000000E-01  8.50000000E-01  8.50000000E-01  8.50000000E-01  8.50000000E-01
  8.50000000E-01  8.50000000E-01  8.50000000E-01  8.50000000E-01  8.50000000E-01
  8.50000000E-01  8.50000000E-01  8.50000000E-01  8.50000000E-01  8.50000000E-01
  8.50000000E-01  8.50000000E-01  8.50000000E-01  8.50000000E-01  8.50000000E-01
  8.50000000E-01  8.50000000E-01  8.50000000E-01  8.50000000E-01  8.50000000E-01
  8.50000000E-01  8.50000000E-01  8.50000000E-01  8.50000000E-01  8.50000000E-01
  8.50000000E-01  8.50000000E-01  8.50000000E-01  8.50000000E-01  8.50000000E-01
  8.50000000E-01  8.50000000E-01  8.50000000E-01  8.50000000E-01  8.50000000E-01
  8.50000000E-01  8.50000000E-01  8.50000000E-01  8.50000000E-01  8.50000000E-01
  8.50000000E-01  8.50000000E-01  8.50000000E-01  8.50000000E-01  8.50000000E-01
  8.50000000E-01  8.50000000E-01  8.50000000E-01  8.50000000E-01  8.50000000E-01
  8.50000000E-01  8.50000000E-01  8.50000000E-01  8.50000000E-01  8.50000000E-01
  8.50000000E-01  8.50000000E-01  8.50000000E-01  8.50000000E-01  8.50000000E-01
  8.50000000E-01  8.50000000E-01  8.50000000E-01  8.50000000E-01  8.50000000E-01
  8.50000000E-01  8.50000000E-01  8.50000000E-01  8.50000000E-01  8.50000000E-01
  8.50000000E-01  8.50000000E-01  8.50000000E-01  8.50000000E-01  8.50000000E-01
  8.50000000E-01  8.50000000E-01  8.50000000E-01  8.50000000E-01  8.50000000E-01
  8.50000000E-01  8.50000000E-01  8.50000000E-01  8.50000000E-01  8.50000000E-01
  8.50000000E-01  8.50000000E-01  8.50000000E-01  8.50000000E-01  8.50000000E-01
  8.50000000E-01  8.50000000E-01  8.50000000E-01  8.50000000E-01  8.50000000E-01
  8.50000000E-01  8.50000000E-01  8.50000000E-01  8.50000000E-01  8.50000000E-01
  8.50000000E-01  8.50000000E-01  8.50000000E-01  8.50000000E-01  8.50000000E-01
  8.50000000E-01  8.50000000E-01  8.50000000E-01  8.50000000E-01  8.50000000E-01
  8.50000000E-01  8.50000000E-01  8.50000000E-01  8.50000000E-01  8.50000000E-01
  8.50000000E-01  8.50000000E-01  8.50000000E-01  8.50000000E-01  8.50000000E-01
  8.50000000E-01  8.50000000E-01  8.50000000E-01  8.50000000E-01  8.50000000E-01
  8.50000000E-01  8.50000000E-01  8.50000000E-01  8.50000000E-01  8.50000000E-01
  8.50000000E-01  8.50000000E-01  8.50000000E-01  8.50000000E-01  8.50000000E-01
  8.50000000E-01  8.50000000E-01  8.50000000E-01  8.50000000E-01  8.50000000E-01
  8.50000000E-01  8.50000000E-01  8.50000000E-01  8.50000000E-01  8.50000000E-01
  8.50000000E-01  8.50000000E-01  8.50000000E-01  8.50000000E-01  8.50000000E-01
  8.50000000E-01  8.50000000E-01  8.50000000E-01  8.50000000E-01  8.50000000E-01
  8.50000000E-01  8.50000000E-01  8.50000000E-01  8.50000000E-01  8.50000000E-01
  8.50000000E-01  8.50000000E-01  8.50000000E-01  8.50000000E-01  8.50000000E-01
  8.50000000E-01  8.50000000E-01  8.50000000E-01  8.50000000E-01  8.50000000E-01
  8.50000000E-01  8.50000000E-01  8.50000000E-01  8.50000000E-01  8.50000000E-01
  8.50000000E-01  8.50000000E-01  8.50000000E-01  8.50000000E-01  8.50000000E-01
  8.50000000E-01  8.50000000E-01  8.50000000E-01  8.50000000E-01  8.50000000E-01
  8.50000000E-01  8.50000000E-01  8.50000000E-01  8.50000000E-01  8.50000000E-01
  8.50000000E-01  8.50000000E-01  8.50000000E-01  8.50000000E-01  8.50000000E-01
  8.50000000E-01  8.50000000E-01  8.50000000E-01  8.50000000E-01  8.50000000E-01
  8.50000000E-01  8.50000000E-01  8.50000000E-01  8.50000000E-01  8.50000000E-01
  8.50000000E-01  8.50000000E-01  8.50000000E-01  8.50000000E-01  8.50000000E-01
  8.50000000E-01  8.50000000E-01  8.50000000E-01  8.50000000E-01  8.50000000E-01
  8.50000000E-01  8.50000000E-01  8.50000000E-01  8.50000000E-01  8.50000000E-01
  8.50000000E-01  8.50000000E-01  8.50000000E-01  8.50000000E-01  8.50000000E-01
  8.50000000E-01  8.50000000E-01  8.50000000E-01  8.50000000E-01  8.50000000E-01
  8.50000000E-01  8.50000000E-01  8.50000000E-01  8.50000000E-01  8.50000000E-01
  8.50000000E-01  8.50000000E-01  8.50000000E-01  8.50000000E-01  8.50000000E-01
  8.50000000E-01  8.50000000E-01  8.50000000E-01  8.50000000E-01  8.50000000E-01
  8.50000000E-01  8.50000000E-01  8.50000000E-01  8.50000000E-01  8.50000000E-01
  8.50000000E-01  8.50000000E-01  8.50000000E-01  8.50000000E-01  8.50000000E-01
  8.50000000E-01  8.50000000E-01  8.50000000E-01  8.50000000E-01  8.50000000E-01
  8.50000000E-01  8.50000000E-01  8.50000000E-01  8.50000000E-01  8.50000000E-01
  8.50000000E-01  8.50000000E-01  8.50000000E-01  8.50000000E-01  8.50000000E-01
  8.50000000E-01  8.50000000E-01  8.50000000E-01  8.50000000E-01  8.50000000E-01
  8.50000000E-01  8.50000000E-01  8.50000000E-01  8.50000000E-01  8.50000000E-01
  8.50000000E-01  8.50000000E-01  8.50000000E-01  8.50000000E-01  8.50000000E-01
  8.50000000E-01  8.50000000E-01  8.50000000E-01  8.50000000E-01  8.50000000E-01
  8.50000000E-01  8.50000000E-01  8.50000000E-01  8.50000000E-01  8.50000000E-01
  8.50000000E-01  8.50000000E-01  8.50000000E-01  8.50000000E-01  8.50000000E-01
  8.50000000E-01  8.50000000E-01  8.50000000E-01  8.50000000E-01  8.50000000E-01
  8.50000000E-01  8.50000000E-01  8.50000000E-01  8.50000000E-01  8.50000000E-01
  8.50000000E-01  8.50000000E-01  8.50000000E-01  8.50000000E-01  8.50000000E-01
  8.50000000E-01  8.50000000E-01  8.50000000E-01  8.50000000E-01  8.50000000E-01
  8.50000000E-01  8.50000000E-01  8.50000000E-01  8.50000000E-01  8.50000000E-01
  8.50000000E-01  8.50000000E-01  8.50000000E-01  8.50000000E-01  8.50000000E-01
  8.50000000E-01  8.50000000E-01  8.50000000E-01  8.50000000E-01  8.50000000E-01
  8.50000000E-01  8.50000000E-01  8.50000000E-01  8.50000000E-01  8.50000000E-01
  8.50000000E-01  8.50000000E-01  8.50000000E-01  8.50000000E-01  8.50000000E-01
  8.50000000E-01  8.50000000E-01  8.50000000E-01  8.50000000E-01  8.50000000E-01
  8.50000000E-01  8.50000000E-01  8.50000000E-01  8.50000000E-01  8.50000000E-01
  8.50000000E-01  8.50000000E-01  8.50000000E-01  8.50000000E-01  8.50000000E-01
  8.50000000E-01  8.50000000E-01  8.50000000E-01  8.50000000E-01  8.50000000E-01
  8.50000000E-01  8.50000000E-01  8.50000000E-01  8.50000000E-01  8.50000000E-01
  8.50000000E-01  8.50000000E-01  8.50000000E-01  8.50000000E-01  8.50000000E-01
  8.50000000E-01  8.50000000E-01  8.50000000E-01  8.50000000E-01  8.50000000E-01
  8.50000000E-01  8.50000000E-01  8.50000000E-01  8.50000000E-01  8.50000000E-01
  8.50000000E-01  8.50000000E-01  8.50000000E-01  8.50000000E-01  8.50000000E-01
  8.50000000E-01  8.50000000E-01  8.50000000E-01  8.50000000E-01  8.50000000E-01
  8.50000000E-01  8.50000000E-01  8.50000000E-01  8.50000000E-01  8.50000000E-01
  8.50000000E-01  8.50000000E-01  8.50000000E-01  8.50000000E-01  8.50000000E-01
  8.50000000E-01  8.50000000E-01  8.50000000E-01  8.50000000E-01  8.50000000E-01
  8.50000000E-01  8.50000000E-01  8.50000000E-01  8.50000000E-01  8.50000000E-01
  8.50000000E-01  8.50000000E-01  8.50000000E-01  8.50000000E-01  8.50000000E-01
  8.50000000E-01  8.50000000E-01  8.50000000E-01  8.50000000E-01  8.50000000E-01
  8.50000000E-01  8.50000000E-01  8.50000000E-01  8.50000000E-01  8.50000000E-01
  8.50000000E-01  8.50000000E-01  8.50000000E-01  8.50000000E-01  8.50000000E-01
  8.50000000E-01  8.50000000E-01  8.50000000E-01  8.50000000E-01  8.50000000E-01
  8.50000000E-01  8.50000000E-01  8.50000000E-01  8.50000000E-01  8.50000000E-01
  8.50000000E-01  8.50000000E-01  8.50000000E-01  8.50000000E-01  8.50000000E-01
  8.50000000E-01  8.50000000E-01  8.50000000E-01  8.50000000E-01  8.50000000E-01
  8.50000000E-01  8.50000000E-01  8.50000000E-01  8.50000000E-01  8.50000000E-01
  8.50000000E-01  8.50000000E-01  8.50000000E-01  8.50000000E-01  8.50000000E-01
  8.50000000E-01  8.50000000E-01  8.50000000E-01  8.50000000E-01  8.50000000E-01
  8.50000000E-01  8.50000000E-01  8.50000000E-01  8.50000000E-01  8.50000000E-01
  8.50000000E-01  8.50000000E-01  8.50000000E-01  8.50000000E-01  8.50000000E-01
  8.50000000E-01  8.50000000E-01  8.50000000E-01  8.50000000E-01  8.50000000E-01
  8.50000000E-01  8.50000000E-01  8.50000000E-01  8.50000000E-01  8.50000000E-01
  8.50000000E-01  8.50000000E-01  8.50000000E-01  8.50000000E-01  8.50000000E-01
  8.50000000E-01  8.50000000E-01  8.50000000E-01  8.50000000E-01  8.50000000E-01
  8.50000000E-01  8.50000000E-01  8.50000000E-01  8.50000000E-01  8.50000000E-01
  8.50000000E-01  8.50000000E-01  8.50000000E-01  8.50000000E-01  8.50000000E-01
  8.50000000E-01  8.50000000E-01  8.50000000E-01  8.50000000E-01  8.50000000E-01
  8.50000000E-01  8.50000000E-01  8.50000000E-01  8.50000000E-01  8.50000000E-01
  8.50000000E-01  8.50000000E-01  8.50000000E-01  8.50000000E-01  8.50000000E-01
  8.50000000E-01  8.50000000E-01  8.50000000E-01  8.50000000E-01  8.50000000E-01
  8.50000000E-01  8.50000000E-01  8.50000000E-01  8.50000000E-01  8.50000000E-01
  8.50000000E-01  8.50000000E-01  8.50000000E-01  8.50000000E-01  8.50000000E-01
  8.50000000E-01  8.50000000E-01  8.50000000E-01  8.50000000E-01  8.50000000E-01
  8.50000000E-01  8.50000000E-01  8.50000000E-01  8.50000000E-01  8.50000000E-01
  8.50000000E-01  8.50000000E-01  8.50000000E-01  8.50000000E-01  8.50000000E-01
  8.50000000E-01  8.50000000E-01  8.50000000E-01  8.50000000E-01  8.50000000E-01
  8.50000000E-01  8.50000000E-01  8.50000000E-01  8.50000000E-01  8.50000000E-01
  8.50000000E-01  8.50000000E-01  8.50000000E-01  8.50000000E-01  8.50000000E-01
  8.50000000E-01  8.50000000E-01  8.50000000E-01  8.50000000E-01  8.50000000E-01
  8.50000000E-01  8.50000000E-01  8.50000000E-01  8.50000000E-01  8.50000000E-01
  8.50000000E-01  8.50000000E-01  8.50000000E-01  8.50000000E-01  8.50000000E-01
  8.50000000E-01  8.50000000E-01  8.50000000E-01  8.50000000E-01  8.50000000E-01
  8.50000000E-01  8.50000000E-01  8.50000000E-01  8.50000000E-01  8.50000000E-01
  8.50000000E-01  8.50000000E-01  8.50000000E-01  8.50000000E-01  8.50000000E-01
  8.50000000E-01  8.50000000E-01  8.50000000E-01  8.50000000E-01  8.50000000E-01
  8.50000000E-01  8.50000000E-01  8.50000000E-01  8.50000000E-01  8.50000000E-01
  8.50000000E-01  8.50000000E-01  8.50000000E-01  8.50000000E-01  8.50000000E-01
  8.50000000E-01  8.50000000E-01  8.50000000E-01  8.50000000E-01  8.50000000E-01
  8.50000000E-01  8.50000000E-01  8.50000000E-01  8.50000000E-01  8.50000000E-01
  8.50000000E-01  8.50000000E-01  8.50000000E-01  8.50000000E-01  8.50000000E-01
  8.50000000E-01  8.50000000E-01  8.50000000E-01  8.50000000E-01  8.50000000E-01
  8.50000000E-01  8.50000000E-01  8.50000000E-01  8.50000000E-01  8.50000000E-01
  8.50000000E-01  8.50000000E-01  8.50000000E-01  8.50000000E-01  8.50000000E-01
  8.50000000E-01  8.50000000E-01  8.50000000E-01  8.50000000E-01  8.50000000E-01
  8.50000000E-01  8.50000000E-01  8.50000000E-01  8.50000000E-01  8.50000000E-01
  8.50000000E-01  8.50000000E-01  8.50000000E-01  8.50000000E-01  8.50000000E-01
  8.50000000E-01  8.50000000E-01  8.50000000E-01  8.50000000E-01  8.50000000E-01
  8.50000000E-01  8.50000000E-01  8.50000000E-01  8.50000000E-01  8.50000000E-01
  8.50000000E-01  8.50000000E-01  8.50000000E-01  8.50000000E-01  8.50000000E-01
  8.50000000E-01  8.50000000E-01  8.50000000E-01  8.50000000E-01  8.50000000E-01
  8.50000000E-01  8.50000000E-01  8.50000000E-01  8.50000000E-01  8.50000000E-01
  8.50000000E-01  8.50000000E-01  8.50000000E-01  8.50000000E-01  8.50000000E-01
  8.50000000E-01  8.50000000E-01  8.50000000E-01  8.50000000E-01  8.50000000E-01
  8.50000000E-01  8.50000000E-01  8.50000000E-01  8.50000000E-01  8.50000000E-01
  8.50000000E-01  8.50000000E-01  8.50000000E-01  8.50000000E-01  8.50000000E-01
  8.50000000E-01  8.50000000E-01  8.50000000E-01  8.50000000E-01  8.50000000E-01
  8.50000000E-01  8.50000000E-01  8.50000000E-01  8.50000000E-01  8.50000000E-01
  8.50000000E-01  8.50000000E-01  8.50000000E-01  8.50000000E-01  8.50000000E-01
  8.50000000E-01  8.50000000E-01  8.50000000E-01  8.50000000E-01  8.50000000E-01
  8.50000000E-01  8.50000000E-01  8.50000000E-01  8.50000000E-01  8.50000000E-01
  8.50000000E-01  8.50000000E-01  8.50000000E-01  8.50000000E-01  8.50000000E-01
  8.50000000E-01  8.50000000E-01  8.50000000E-01  8.50000000E-01  8.50000000E-01
  8.50000000E-01  8.50000000E-01  8.50000000E-01  8.50000000E-01  8.50000000E-01
  8.50000000E-01  8.50000000E-01  8.50000000E-01  8.50000000E-01  8.50000000E-01
  8.50000000E-01  8.50000000E-01  8.50000000E-01  8.50000000E-01  8.50000000E-01
  8.50000000E-01  8.50000000E-01  8.50000000E-01  8.50000000E-01  8.50000000E-01
  8.50000000E-01  8.50000000E-01  8.50000000E-01  8.50000000E-01  8.50000000E-01
  8.50000000E-01  8.50000000E-01  8.50000000E-01  8.50000000E-01  8.50000000E-01
  8.50000000E-01  8.50000000E-01  8.50000000E-01  8.50000000E-01  8.50000000E-01
  8.50000000E-01  8.50000000E-01  8.50000000E-01  8.50000000E-01  8.50000000E-01
  8.50000000E-01  8.50000000E-01  8.50000000E-01  8.50000000E-01  8.50000000E-01
  8.50000000E-01  8.50000000E-01  8.50000000E-01  8.50000000E-01  8.50000000E-01
  8.50000000E-01  8.50000000E-01  8.50000000E-01  8.50000000E-01  8.50000000E-01
  8.50000000E-01  8.50000000E-01  8.50000000E-01  8.50000000E-01  8.50000000E-01
  8.50000000E-01  8.50000000E-01  8.50000000E-01  8.50000000E-01  8.50000000E-01
  8.50000000E-01  8.50000000E-01  8.50000000E-01  8.50000000E-01  8.50000000E-01
  8.50000000E-01  8.50000000E-01  8.50000000E-01  8.50000000E-01  8.50000000E-01
  8.50000000E-01  8.50000000E-01  8.50000000E-01  8.50000000E-01  8.50000000E-01
  8.50000000E-01  8.50000000E-01  8.50000000E-01  8.50000000E-01  8.50000000E-01
  8.50000000E-01  8.50000000E-01  8.50000000E-01  8.50000000E-01  8.50000000E-01
  8.50000000E-01  8.50000000E-01  8.50000000E-01  8.50000000E-01  8.50000000E-01
  8.50000000E-01  8.50000000E-01  8.50000000E-01  8.50000000E-01  8.50000000E-01
  8.50000000E-01  8.50000000E-01  8.50000000E-01  8.50000000E-01  8.50000000E-01
  8.50000000E-01  8.50000000E-01  8.50000000E-01  8.50000000E-01  8.50000000E-01
  8.50000000E-01  8.50000000E-01  8.50000000E-01  8.50000000E-01  8.50000000E-01
  8.50000000E-01  8.50000000E-01  8.50000000E-01  8.50000000E-01  8.50000000E-01
  8.50000000E-01  8.50000000E-01  8.50000000E-01  8.50000000E-01  8.50000000E-01
  8.50000000E-01  8.50000000E-01  8.50000000E-01  8.50000000E-01  8.50000000E-01
  8.50000000E-01  8.50000000E-01  8.50000000E-01  8.50000000E-01  8.50000000E-01
  8.50000000E-01  8.50000000E-01  8.50000000E-01  8.50000000E-01  8.50000000E-01
  8.50000000E-01  8.50000000E-01  8.50000000E-01  8.50000000E-01  8.50000000E-01
  8.50000000E-01  8.50000000E-01  8.50000000E-01  8.50000000E-01  8.50000000E-01
  8.50000000E-01  8.50000000E-01  8.50000000E-01  8.50000000E-01  8.50000000E-01
  8.50000000E-01  8.50000000E-01  8.50000000E-01  8.50000000E-01  8.50000000E-01
  8.50000000E-01  8.50000000E-01  8.50000000E-01  8.50000000E-01  8.50000000E-01
  8.50000000E-01  8.50000000E-01  8.50000000E-01  8.50000000E-01  8.50000000E-01
  8.50000000E-01  8.50000000E-01  8.50000000E-01  8.50000000E-01  8.50000000E-01
  8.50000000E-01  8.50000000E-01  8.50000000E-01  8.50000000E-01  8.50000000E-01
  8.50000000E-01  8.50000000E-01  8.50000000E-01  8.50000000E-01  8.50000000E-01
  8.50000000E-01  8.50000000E-01  8.50000000E-01  8.50000000E-01  8.50000000E-01
  8.50000000E-01  8.50000000E-01  8.50000000E-01  8.50000000E-01  8.50000000E-01
  8.50000000E-01  8.50000000E-01  8.50000000E-01  8.50000000E-01  8.50000000E-01
  8.50000000E-01  8.50000000E-01  8.50000000E-01  8.50000000E-01  8.50000000E-01
  8.50000000E-01  8.50000000E-01  8.50000000E-01  8.50000000E-01  8.50000000E-01
  8.50000000E-01  8.50000000E-01  8.50000000E-01  8.50000000E-01  8.50000000E-01
  8.50000000E-01  8.50000000E-01  8.50000000E-01  8.50000000E-01  8.50000000E-01
  8.50000000E-01  8.50000000E-01  8.50000000E-01  8.50000000E-01  8.50000000E-01
  8.50000000E-01  8.50000000E-01  8.50000000E-01  8.50000000E-01  8.50000000E-01
  8.50000000E-01  8.50000000E-01  8.50000000E-01  8.50000000E-01  8.50000000E-01
  8.50000000E-01  8.50000000E-01  8.50000000E-01  8.50000000E-01  8.50000000E-01
  8.50000000E-01  8.50000000E-01  8.50000000E-01  8.50000000E-01  8.50000000E-01
  8.50000000E-01  8.50000000E-01  8.50000000E-01  8.50000000E-01  8.50000000E-01
  8.50000000E-01  8.50000000E-01  8.50000000E-01  8.50000000E-01  8.50000000E-01
  8.50000000E-01  8.50000000E-01  8.50000000E-01  8.50000000E-01  8.50000000E-01
  8.50000000E-01  8.50000000E-01  8.50000000E-01  8.50000000E-01  8.50000000E-01
  8.50000000E-01  8.50000000E-01  8.50000000E-01  8.50000000E-01  8.50000000E-01
  8.50000000E-01  8.50000000E-01  8.50000000E-01  8.50000000E-01  8.50000000E-01
  8.50000000E-01  8.50000000E-01  8.50000000E-01  8.50000000E-01  8.50000000E-01
  8.50000000E-01  8.50000000E-01  8.50000000E-01  8.50000000E-01  8.50000000E-01
  8.50000000E-01  8.50000000E-01  8.50000000E-01  8.50000000E-01  8.50000000E-01
  8.50000000E-01  8.50000000E-01  8.50000000E-01  8.50000000E-01  8.50000000E-01
  8.50000000E-01  8.50000000E-01  8.50000000E-01  8.50000000E-01  8.50000000E-01
  8.50000000E-01  8.50000000E-01  8.50000000E-01  8.50000000E-01  8.50000000E-01
  8.50000000E-01  8.50000000E-01  8.50000000E-01  8.50000000E-01  8.50000000E-01
  8.50000000E-01  8.50000000E-01  8.50000000E-01  8.50000000E-01  8.50000000E-01
  8.50000000E-01  8.50000000E-01  8.50000000E-01  8.50000000E-01  8.50000000E-01
  8.50000000E-01  8.50000000E-01  8.50000000E-01  8.50000000E-01  8.50000000E-01
  8.50000000E-01  8.50000000E-01  8.50000000E-01  8.50000000E-01  8.50000000E-01
  8.50000000E-01  8.50000000E-01  8.50000000E-01  8.50000000E-01  8.50000000E-01
  8.50000000E-01  8.50000000E-01  8.50000000E-01  8.50000000E-01  8.50000000E-01
  8.50000000E-01  8.50000000E-01  8.50000000E-01  8.50000000E-01  8.50000000E-01
  8.50000000E-01  8.50000000E-01  8.50000000E-01  8.50000000E-01  8.50000000E-01
  8.50000000E-01  8.50000000E-01  8.50000000E-01  8.50000000E-01  8.50000000E-01
  8.50000000E-01  8.50000000E-01  8.50000000E-01  8.50000000E-01  8.50000000E-01
  8.50000000E-01  8.50000000E-01  8.50000000E-01  8.50000000E-01  8.50000000E-01
  8.50000000E-01  8.50000000E-01  8.50000000E-01  8.50000000E-01  8.50000000E-01
  8.50000000E-01  8.50000000E-01  8.50000000E-01  8.50000000E-01  8.50000000E-01
  8.50000000E-01  8.50000000E-01  8.50000000E-01  8.50000000E-01  8.50000000E-01
  8.50000000E-01  8.50000000E-01  8.50000000E-01  8.50000000E-01  8.50000000E-01
  8.50000000E-01  8.50000000E-01  8.50000000E-01  8.50000000E-01  8.50000000E-01
  8.50000000E-01  8.50000000E-01  8.50000000E-01  8.50000000E-01  8.50000000E-01
  8.50000000E-01  8.50000000E-01  8.50000000E-01  8.50000000E-01  8.50000000E-01
  8.50000000E-01  8.50000000E-01  8.50000000E-01  8.50000000E-01  8.50000000E-01
  8.50000000E-01  8.50000000E-01  8.50000000E-01  8.50000000E-01  8.50000000E-01
  8.50000000E-01  8.50000000E-01  8.50000000E-01  8.50000000E-01  8.50000000E-01
  8.50000000E-01  8.50000000E-01  8.50000000E-01  8.50000000E-01  8.50000000E-01
  8.50000000E-01  8.50000000E-01  8.50000000E-01  8.50000000E-01  8.50000000E-01
  8.50000000E-01  8.50000000E-01  8.50000000E-01  8.50000000E-01  8.50000000E-01
  8.50000000E-01  8.50000000E-01  8.50000000E-01  8.50000000E-01  8.50000000E-01
  8.50000000E-01  8.50000000E-01  8.50000000E-01  8.50000000E-01  8.50000000E-01
  8.50000000E-01  8.50000000E-01  8.50000000E-01  8.50000000E-01  8.50000000E-01
  8.50000000E-01  8.50000000E-01  8.50000000E-01  8.50000000E-01  8.50000000E-01
  8.50000000E-01  8.50000000E-01  8.50000000E-01  8.50000000E-01  8.50000000E-01
  8.50000000E-01  8.50000000E-01  8.50000000E-01  8.50000000E-01  8.50000000E-01
  8.50000000E-01  8.50000000E-01  8.50000000E-01  8.50000000E-01  8.50000000E-01
  8.50000000E-01  8.50000000E-01  8.50000000E-01  8.50000000E-01  8.50000000E-01
  8.50000000E-01  8.50000000E-01  8.50000000E-01  8.50000000E-01  8.50000000E-01
  8.50000000E-01  8.50000000E-01  8.50000000E-01  8.50000000E-01  8.50000000E-01
  8.50000000E-01  8.50000000E-01  8.50000000E-01  8.50000000E-01  8.50000000E-01
  8.50000000E-01  8.50000000E-01  8.50000000E-01  8.50000000E-01  8.50000000E-01
  8.50000000E-01  8.50000000E-01  8.50000000E-01  8.50000000E-01  8.50000000E-01
  8.50000000E-01  8.50000000E-01  8.50000000E-01  8.50000000E-01  8.50000000E-01
  8.50000000E-01  8.50000000E-01  8.50000000E-01  8.50000000E-01  8.50000000E-01
  8.50000000E-01  8.50000000E-01  8.50000000E-01  8.50000000E-01  8.50000000E-01
  8.50000000E-01  8.50000000E-01  8.50000000E-01  8.50000000E-01  8.50000000E-01
  8.50000000E-01  8.50000000E-01  8.50000000E-01  8.50000000E-01  8.50000000E-01
  8.50000000E-01  8.50000000E-01  8.50000000E-01  8.50000000E-01  8.50000000E-01
  8.50000000E-01  8.50000000E-01  8.50000000E-01  8.50000000E-01  8.50000000E-01
  8.50000000E-01  8.50000000E-01  8.50000000E-01  8.50000000E-01  8.50000000E-01
  8.50000000E-01  8.50000000E-01  8.50000000E-01  8.50000000E-01  8.50000000E-01
  8.50000000E-01  8.50000000E-01  8.50000000E-01  8.50000000E-01  8.50000000E-01
  8.50000000E-01  8.50000000E-01  8.50000000E-01  8.50000000E-01  8.50000000E-01
  8.50000000E-01  8.50000000E-01  8.50000000E-01  8.50000000E-01  8.50000000E-01
  8.50000000E-01  8.50000000E-01  8.50000000E-01  8.50000000E-01  8.50000000E-01
  8.50000000E-01  8.50000000E-01  8.50000000E-01  8.50000000E-01  8.50000000E-01
  8.50000000E-01  8.50000000E-01  8.50000000E-01  8.50000000E-01  8.50000000E-01
  8.50000000E-01  8.50000000E-01  8.50000000E-01  8.50000000E-01  8.50000000E-01
  8.50000000E-01  8.50000000E-01  8.50000000E-01  8.50000000E-01  8.50000000E-01
  8.50000000E-01  8.50000000E-01  8.50000000E-01  8.50000000E-01  8.50000000E-01
  8.50000000E-01  8.50000000E-01  8.50000000E-01  8.50000000E-01  8.50000000E-01
  8.50000000E-01  8.50000000E-01  8.50000000E-01  8.50000000E-01  8.50000000E-01
  8.50000000E-01  8.50000000E-01  8.50000000E-01  8.50000000E-01  8.50000000E-01
  8.50000000E-01  8.50000000E-01  8.50000000E-01  8.50000000E-01  8.50000000E-01
  8.50000000E-01  8.50000000E-01  8.50000000E-01  8.50000000E-01  8.50000000E-01
  8.50000000E-01  8.50000000E-01  8.50000000E-01  8.50000000E-01  8.50000000E-01
  8.50000000E-01  8.50000000E-01  8.50000000E-01  8.50000000E-01  8.50000000E-01
  8.50000000E-01  8.50000000E-01  8.50000000E-01  8.50000000E-01  8.50000000E-01
  8.50000000E-01  8.50000000E-01  8.50000000E-01  8.50000000E-01  8.50000000E-01
  8.50000000E-01  8.50000000E-01  8.50000000E-01  8.50000000E-01  8.50000000E-01
  8.50000000E-01  8.50000000E-01  8.50000000E-01  8.50000000E-01  8.50000000E-01
  8.50000000E-01  8.50000000E-01  8.50000000E-01  8.50000000E-01  8.50000000E-01
  8.50000000E-01  8.50000000E-01  8.50000000E-01  8.50000000E-01  8.50000000E-01
  8.50000000E-01  8.50000000E-01  8.50000000E-01  8.50000000E-01  8.50000000E-01
  8.50000000E-01  8.50000000E-01  8.50000000E-01  8.50000000E-01  8.50000000E-01
  8.50000000E-01  8.50000000E-01  8.50000000E-01  8.50000000E-01  8.50000000E-01
  8.50000000E-01  8.50000000E-01  8.50000000E-01  8.50000000E-01  8.50000000E-01
  8.50000000E-01  8.50000000E-01  8.50000000E-01  8.50000000E-01  8.50000000E-01
  8.50000000E-01  8.50000000E-01  8.50000000E-01  8.50000000E-01  8.50000000E-01
  8.50000000E-01  8.50000000E-01  8.50000000E-01  8.50000000E-01  8.50000000E-01
  8.50000000E-01  8.50000000E-01  8.50000000E-01  8.50000000E-01  8.50000000E-01
  8.50000000E-01  8.50000000E-01  8.50000000E-01  8.50000000E-01  8.50000000E-01
  8.50000000E-01  8.50000000E-01  8.50000000E-01  8.50000000E-01  8.50000000E-01
  8.50000000E-01  8.50000000E-01  8.50000000E-01  8.50000000E-01  8.50000000E-01
  8.50000000E-01  8.50000000E-01  8.50000000E-01  8.50000000E-01  8.50000000E-01
  8.50000000E-01  8.50000000E-01  8.50000000E-01  8.50000000E-01  8.50000000E-01
  8.50000000E-01  8.50000000E-01  8.50000000E-01  8.50000000E-01  8.50000000E-01
  8.50000000E-01  8.50000000E-01  8.50000000E-01  8.50000000E-01  8.50000000E-01
  8.50000000E-01  8.50000000E-01  8.50000000E-01  8.50000000E-01  8.50000000E-01
  8.50000000E-01  8.50000000E-01  8.50000000E-01  8.50000000E-01  8.50000000E-01
  8.50000000E-01  8.50000000E-01  8.50000000E-01  8.50000000E-01  8.50000000E-01
  8.50000000E-01  8.50000000E-01  8.50000000E-01  8.50000000E-01  8.50000000E-01
  8.50000000E-01  8.50000000E-01  8.50000000E-01  8.50000000E-01  8.50000000E-01
  8.50000000E-01  8.50000000E-01  8.50000000E-01  8.50000000E-01  8.50000000E-01
  8.50000000E-01  8.50000000E-01  8.50000000E-01  8.50000000E-01  8.50000000E-01
  8.50000000E-01  8.50000000E-01  8.50000000E-01  8.50000000E-01  8.50000000E-01
  8.50000000E-01  8.50000000E-01  8.50000000E-01  8.50000000E-01  8.50000000E-01
  8.50000000E-01  8.50000000E-01  8.50000000E-01  8.50000000E-01  8.50000000E-01
  8.50000000E-01  8.50000000E-01  8.50000000E-01  8.50000000E-01  8.50000000E-01
  8.50000000E-01  8.50000000E-01  8.50000000E-01  8.50000000E-01  8.50000000E-01
  8.50000000E-01  8.50000000E-01  8.50000000E-01  8.50000000E-01  8.50000000E-01
  8.50000000E-01  8.50000000E-01  8.50000000E-01  8.50000000E-01  8.50000000E-01
  8.50000000E-01  8.50000000E-01  8.50000000E-01  8.50000000E-01  8.50000000E-01
  8.50000000E-01  8.50000000E-01  8.50000000E-01  8.50000000E-01  8.50000000E-01
  8.50000000E-01  8.50000000E-01  8.50000000E-01  8.50000000E-01  8.50000000E-01
  8.50000000E-01  8.50000000E-01  8.50000000E-01  8.50000000E-01  8.50000000E-01
  8.50000000E-01  8.50000000E-01  8.50000000E-01  8.50000000E-01  8.50000000E-01
  8.50000000E-01  8.50000000E-01  8.50000000E-01  8.50000000E-01  8.50000000E-01
  8.50000000E-01  8.50000000E-01  8.50000000E-01  8.50000000E-01  8.50000000E-01
  8.50000000E-01  8.50000000E-01  8.50000000E-01  8.50000000E-01  8.50000000E-01
  8.50000000E-01  8.50000000E-01  8.50000000E-01  8.50000000E-01  8.50000000E-01
  8.50000000E-01  8.50000000E-01  8.50000000E-01  8.50000000E-01  8.50000000E-01
  8.50000000E-01  8.50000000E-01  8.50000000E-01  8.50000000E-01  8.50000000E-01
  8.50000000E-01  8.50000000E-01  8.50000000E-01  8.50000000E-01  8.50000000E-01
  8.50000000E-01  8.50000000E-01  8.50000000E-01  8.50000000E-01  8.50000000E-01
  8.50000000E-01  8.50000000E-01  8.50000000E-01  8.50000000E-01  8.50000000E-01
  8.50000000E-01  8.50000000E-01  8.50000000E-01  8.50000000E-01  8.50000000E-01
  8.50000000E-01  8.50000000E-01  8.50000000E-01  8.50000000E-01  8.50000000E-01
  8.50000000E-01  8.50000000E-01  8.50000000E-01  8.50000000E-01  8.50000000E-01
  8.50000000E-01  8.50000000E-01  8.50000000E-01  8.50000000E-01  8.50000000E-01
  8.50000000E-01  8.50000000E-01  8.50000000E-01  8.50000000E-01  8.50000000E-01
  8.50000000E-01  8.50000000E-01  8.50000000E-01  8.50000000E-01  8.50000000E-01
  8.50000000E-01  8.50000000E-01  8.50000000E-01  8.50000000E-01  8.50000000E-01
  8.50000000E-01  8.50000000E-01  8.50000000E-01  8.50000000E-01  8.50000000E-01
  8.50000000E-01  8.50000000E-01  8.50000000E-01  8.50000000E-01  8.50000000E-01
  8.50000000E-01  8.50000000E-01  8.50000000E-01  8.50000000E-01  8.50000000E-01
  8.50000000E-01  8.50000000E-01  8.50000000E-01  8.50000000E-01  8.50000000E-01
  8.50000000E-01  8.50000000E-01  8.50000000E-01  8.50000000E-01  8.50000000E-01
  8.50000000E-01  8.50000000E-01  8.50000000E-01  8.50000000E-01  8.50000000E-01
  8.50000000E-01  8.50000000E-01  8.50000000E-01  8.50000000E-01  8.50000000E-01
  8.50000000E-01  8.50000000E-01  8.50000000E-01  8.50000000E-01  8.50000000E-01
  8.50000000E-01  8.50000000E-01  8.50000000E-01  8.50000000E-01  8.50000000E-01
  8.50000000E-01  8.50000000E-01  8.50000000E-01  8.50000000E-01  8.50000000E-01
  8.50000000E-01  8.50000000E-01  8.50000000E-01  8.50000000E-01  8.50000000E-01
  8.50000000E-01  8.50000000E-01  8.50000000E-01  8.50000000E-01  8.50000000E-01
  8.50000000E-01  8.50000000E-01  8.50000000E-01  8.50000000E-01  8.50000000E-01
  8.50000000E-01  8.50000000E-01  8.50000000E-01  8.50000000E-01  8.50000000E-01
  8.50000000E-01  8.50000000E-01  8.50000000E-01  8.50000000E-01  8.50000000E-01
  8.50000000E-01  8.50000000E-01  8.50000000E-01  8.50000000E-01  8.50000000E-01
  8.50000000E-01  8.50000000E-01  8.50000000E-01  8.50000000E-01  8.50000000E-01
  8.50000000E-01  8.50000000E-01  8.50000000E-01  8.50000000E-01  8.50000000E-01
  8.50000000E-01  8.50000000E-01  8.50000000E-01  8.50000000E-01  8.50000000E-01
  8.50000000E-01  8.50000000E-01  8.50000000E-01  8.50000000E-01  8.50000000E-01
  8.50000000E-01  8.50000000E-01  8.50000000E-01  8.50000000E-01  8.50000000E-01
  8.50000000E-01  8.50000000E-01  8.50000000E-01  8.50000000E-01  8.50000000E-01
  8.50000000E-01  8.50000000E-01  8.50000000E-01  8.50000000E-01  8.50000000E-01
  8.50000000E-01  8.50000000E-01  8.50000000E-01  8.50000000E-01  8.50000000E-01
  8.50000000E-01  8.50000000E-01  8.50000000E-01  8.50000000E-01  8.50000000E-01
  8.50000000E-01  8.50000000E-01  8.50000000E-01  8.50000000E-01  8.50000000E-01
  8.50000000E-01  8.50000000E-01  8.50000000E-01  8.50000000E-01  8.50000000E-01
  8.50000000E-01  8.50000000E-01  8.50000000E-01  8.50000000E-01  8.50000000E-01
  8.50000000E-01  8.50000000E-01  8.50000000E-01  8.50000000E-01  8.50000000E-01
  8.50000000E-01  8.50000000E-01  8.50000000E-01  8.50000000E-01  8.50000000E-01
  8.50000000E-01  8.50000000E-01  8.50000000E-01  8.50000000E-01  8.50000000E-01
  8.50000000E-01  8.50000000E-01  8.50000000E-01  8.50000000E-01  8.50000000E-01
  8.50000000E-01  8.50000000E-01  8.50000000E-01  8.50000000E-01  8.50000000E-01
  8.50000000E-01  8.50000000E-01  8.50000000E-01  8.50000000E-01  8.50000000E-01
  8.50000000E-01  8.50000000E-01  8.50000000E-01  8.50000000E-01  8.50000000E-01
  8.50000000E-01  8.50000000E-01  8.50000000E-01  8.50000000E-01  8.50000000E-01
  8.50000000E-01  8.50000000E-01  8.50000000E-01  8.50000000E-01  8.50000000E-01
  8.50000000E-01  8.50000000E-01  8.50000000E-01  8.50000000E-01  8.50000000E-01
  8.50000000E-01  8.50000000E-01  8.50000000E-01  8.50000000E-01  8.50000000E-01
  8.50000000E-01  8.50000000E-01  8.50000000E-01  8.50000000E-01  8.50000000E-01
  8.50000000E-01  8.50000000E-01  8.50000000E-01  8.50000000E-01  8.50000000E-01
  8.50000000E-01  8.50000000E-01  8.50000000E-01  8.50000000E-01  8.50000000E-01
  8.50000000E-01  8.50000000E-01  8.50000000E-01  8.50000000E-01  8.50000000E-01
  8.50000000E-01  8.50000000E-01  8.50000000E-01  8.50000000E-01  8.50000000E-01
  8.50000000E-01  8.50000000E-01  8.50000000E-01  8.50000000E-01  8.50000000E-01
  8.50000000E-01  8.50000000E-01  8.50000000E-01  8.50000000E-01  8.50000000E-01
  8.50000000E-01  8.50000000E-01  8.50000000E-01  8.50000000E-01  8.50000000E-01
  8.50000000E-01  8.50000000E-01  8.50000000E-01  8.50000000E-01  8.50000000E-01
  8.50000000E-01  8.50000000E-01  8.50000000E-01  8.50000000E-01  8.50000000E-01
  8.50000000E-01  8.50000000E-01  8.50000000E-01  8.50000000E-01  8.50000000E-01
  8.50000000E-01  8.50000000E-01  8.50000000E-01  8.50000000E-01  8.50000000E-01
  8.50000000E-01  8.50000000E-01  8.50000000E-01  8.50000000E-01  8.50000000E-01
  8.50000000E-01  8.50000000E-01  8.50000000E-01  8.50000000E-01  8.50000000E-01
  8.50000000E-01  8.50000000E-01  8.50000000E-01  8.50000000E-01  8.50000000E-01
  8.50000000E-01  8.50000000E-01  8.50000000E-01  8.50000000E-01  8.50000000E-01
  8.50000000E-01  8.50000000E-01  8.50000000E-01  8.50000000E-01  8.50000000E-01
  8.50000000E-01  8.50000000E-01  8.50000000E-01  8.50000000E-01  8.50000000E-01
  8.50000000E-01  8.50000000E-01  8.50000000E-01  8.50000000E-01  8.50000000E-01
  8.50000000E-01  8.50000000E-01  8.50000000E-01  8.50000000E-01  8.50000000E-01
  8.50000000E-01  8.50000000E-01  8.50000000E-01  8.50000000E-01  8.50000000E-01
  8.50000000E-01  8.50000000E-01  8.50000000E-01  8.50000000E-01  8.50000000E-01
  8.50000000E-01  8.50000000E-01  8.50000000E-01  8.50000000E-01  8.50000000E-01
  8.50000000E-01  8.50000000E-01  8.50000000E-01  8.50000000E-01  8.50000000E-01
  8.50000000E-01  8.50000000E-01  8.50000000E-01  8.50000000E-01  8.50000000E-01
  8.50000000E-01  8.50000000E-01  8.50000000E-01  8.50000000E-01  8.50000000E-01
  8.50000000E-01  8.50000000E-01  8.50000000E-01  8.50000000E-01  8.50000000E-01
  8.50000000E-01  8.50000000E-01  8.50000000E-01  8.50000000E-01  8.50000000E-01
  8.50000000E-01  8.50000000E-01  8.50000000E-01  8.50000000E-01  8.50000000E-01
  8.50000000E-01  8.50000000E-01  8.50000000E-01  8.50000000E-01  8.50000000E-01
  8.50000000E-01  8.50000000E-01  8.50000000E-01  8.50000000E-01  8.50000000E-01
  8.50000000E-01  8.50000000E-01  8.50000000E-01  8.50000000E-01  8.50000000E-01
  8.50000000E-01  8.50000000E-01  8.50000000E-01  8.50000000E-01  8.50000000E-01
  8.50000000E-01  8.50000000E-01  8.50000000E-01  8.50000000E-01  8.50000000E-01
  8.50000000E-01  8.50000000E-01  8.50000000E-01  8.50000000E-01  8.50000000E-01
  8.50000000E-01  8.50000000E-01  8.50000000E-01  8.50000000E-01  8.50000000E-01
  8.50000000E-01  8.50000000E-01  8.50000000E-01  8.50000000E-01  8.50000000E-01
  8.50000000E-01  8.50000000E-01  8.50000000E-01  8.50000000E-01  8.50000000E-01
  8.50000000E-01  8.50000000E-01  8.50000000E-01  8.50000000E-01  8.50000000E-01
  8.50000000E-01  8.50000000E-01  8.50000000E-01  8.50000000E-01  8.50000000E-01
  8.50000000E-01  8.50000000E-01  8.50000000E-01  8.50000000E-01  8.50000000E-01
  8.50000000E-01  8.50000000E-01  8.50000000E-01  8.50000000E-01  8.50000000E-01
  8.50000000E-01  8.50000000E-01  8.50000000E-01  8.50000000E-01  8.50000000E-01
  8.50000000E-01  8.50000000E-01  8.50000000E-01  8.50000000E-01  8.50000000E-01
  8.50000000E-01  8.50000000E-01  8.50000000E-01  8.50000000E-01  8.50000000E-01
  8.50000000E-01  8.50000000E-01  8.50000000E-01  8.50000000E-01  8.50000000E-01
  8.50000000E-01  8.50000000E-01  8.50000000E-01  8.50000000E-01  8.50000000E-01
  8.50000000E-01  8.50000000E-01  8.50000000E-01  8.50000000E-01  8.50000000E-01
  8.50000000E-01  8.50000000E-01  8.50000000E-01  8.50000000E-01  8.50000000E-01
  8.50000000E-01  8.50000000E-01  8.50000000E-01  8.50000000E-01  8.50000000E-01
  8.50000000E-01  8.50000000E-01  8.50000000E-01  8.50000000E-01  8.50000000E-01
  8.50000000E-01  8.50000000E-01  8.50000000E-01  8.50000000E-01  8.50000000E-01
  8.50000000E-01  8.50000000E-01  8.50000000E-01  8.50000000E-01  8.50000000E-01
  8.50000000E-01  8.50000000E-01  8.50000000E-01  8.50000000E-01  8.50000000E-01
  8.50000000E-01  8.50000000E-01  8.50000000E-01  8.50000000E-01  8.50000000E-01
  8.50000000E-01  8.50000000E-01  8.50000000E-01  8.50000000E-01  8.50000000E-01
  8.50000000E-01  8.50000000E-01  8.50000000E-01  8.50000000E-01  8.50000000E-01
  8.50000000E-01  8.50000000E-01  8.50000000E-01  8.50000000E-01  8.50000000E-01
  8.50000000E-01  8.50000000E-01  8.50000000E-01  8.50000000E-01  8.50000000E-01
  8.50000000E-01  8.50000000E-01  8.50000000E-01  8.50000000E-01  8.50000000E-01
  8.50000000E-01  8.50000000E-01  8.50000000E-01  8.50000000E-01  8.50000000E-01
  8.50000000E-01  8.50000000E-01  8.50000000E-01  8.50000000E-01  8.50000000E-01
  8.50000000E-01  8.50000000E-01  8.50000000E-01  8.50000000E-01  8.50000000E-01
  8.50000000E-01  8.50000000E-01  8.50000000E-01  8.50000000E-01  8.50000000E-01
  8.50000000E-01  8.50000000E-01  8.50000000E-01  8.50000000E-01  8.50000000E-01
  8.50000000E-01  8.50000000E-01  8.50000000E-01  8.50000000E-01  8.50000000E-01
  8.50000000E-01  8.50000000E-01  8.50000000E-01  8.50000000E-01  8.50000000E-01
  8.50000000E-01  8.50000000E-01  8.50000000E-01  8.50000000E-01  8.50000000E-01
  8.50000000E-01  8.50000000E-01  8.50000000E-01  8.50000000E-01  8.50000000E-01
  8.50000000E-01  8.50000000E-01  8.50000000E-01  8.50000000E-01  8.50000000E-01
  8.50000000E-01  8.50000000E-01  8.50000000E-01  8.50000000E-01  8.50000000E-01
  8.50000000E-01  8.50000000E-01  8.50000000E-01  8.50000000E-01  8.50000000E-01
  8.50000000E-01  8.50000000E-01  8.50000000E-01  8.50000000E-01  8.50000000E-01
  8.50000000E-01  8.50000000E-01  8.50000000E-01  8.50000000E-01  8.50000000E-01
  8.50000000E-01  8.50000000E-01  8.50000000E-01  8.50000000E-01  8.50000000E-01
  8.50000000E-01  8.50000000E-01  8.50000000E-01  8.50000000E-01  8.50000000E-01
  8.50000000E-01  8.50000000E-01  8.50000000E-01  8.50000000E-01  8.50000000E-01
  8.50000000E-01  8.50000000E-01  8.50000000E-01  8.50000000E-01  8.50000000E-01
  8.50000000E-01  8.50000000E-01  8.50000000E-01  8.50000000E-01  8.50000000E-01
  8.50000000E-01  8.50000000E-01  8.50000000E-01  8.50000000E-01  8.50000000E-01
  8.50000000E-01  8.50000000E-01  8.50000000E-01  8.50000000E-01  8.50000000E-01
  8.50000000E-01  8.50000000E-01  8.50000000E-01  8.50000000E-01  8.50000000E-01
  8.50000000E-01  8.50000000E-01  8.50000000E-01  8.50000000E-01  8.50000000E-01
  8.50000000E-01  8.50000000E-01  8.50000000E-01  8.50000000E-01  8.50000000E-01
  8.50000000E-01  8.50000000E-01  8.50000000E-01  8.50000000E-01  8.50000000E-01
  8.50000000E-01  8.50000000E-01  8.50000000E-01  8.50000000E-01  8.50000000E-01
  8.50000000E-01  8.50000000E-01  8.50000000E-01  8.50000000E-01  8.50000000E-01
  8.50000000E-01  8.50000000E-01  8.50000000E-01  8.50000000E-01  8.50000000E-01
  8.50000000E-01  8.50000000E-01  8.50000000E-01  8.50000000E-01  8.50000000E-01
  8.50000000E-01  8.50000000E-01  8.50000000E-01  8.50000000E-01  8.50000000E-01
  8.50000000E-01  8.50000000E-01  8.50000000E-01  8.50000000E-01  8.50000000E-01
  8.50000000E-01  8.50000000E-01  8.50000000E-01  8.50000000E-01  8.50000000E-01
  8.50000000E-01  8.50000000E-01  8.50000000E-01  8.50000000E-01  8.50000000E-01
  8.50000000E-01  8.50000000E-01  8.50000000E-01  8.50000000E-01  8.50000000E-01
  8.50000000E-01  8.50000000E-01  8.50000000E-01  8.50000000E-01  8.50000000E-01
  8.50000000E-01  8.50000000E-01  8.50000000E-01  8.50000000E-01  8.50000000E-01
  8.50000000E-01  8.50000000E-01  8.50000000E-01  8.50000000E-01  8.50000000E-01
  8.50000000E-01  8.50000000E-01  8.50000000E-01  8.50000000E-01  8.50000000E-01
  8.50000000E-01  8.50000000E-01  8.50000000E-01  8.50000000E-01  8.50000000E-01
  8.50000000E-01  8.50000000E-01  8.50000000E-01  8.50000000E-01  8.50000000E-01
  8.50000000E-01  8.50000000E-01  8.50000000E-01  8.50000000E-01  8.50000000E-01
  8.50000000E-01  8.50000000E-01  8.50000000E-01  8.50000000E-01  8.50000000E-01
  8.50000000E-01  8.50000000E-01  8.50000000E-01  8.50000000E-01  8.50000000E-01
  8.50000000E-01  8.50000000E-01  8.50000000E-01  8.50000000E-01  8.50000000E-01
  8.50000000E-01  8.50000000E-01  8.50000000E-01  8.50000000E-01  8.50000000E-01
  8.50000000E-01  8.50000000E-01  8.50000000E-01  8.50000000E-01  8.50000000E-01
  8.50000000E-01  8.50000000E-01  8.50000000E-01  8.50000000E-01  8.50000000E-01
  8.50000000E-01  8.50000000E-01  8.50000000E-01  8.50000000E-01  8.50000000E-01
  8.50000000E-01  8.50000000E-01  8.50000000E-01  8.50000000E-01  8.50000000E-01
  8.50000000E-01  8.50000000E-01  8.50000000E-01  8.50000000E-01  8.50000000E-01
  8.50000000E-01  8.50000000E-01  8.50000000E-01  8.50000000E-01  8.50000000E-01
  8.50000000E-01  8.50000000E-01  8.50000000E-01  8.50000000E-01  8.50000000E-01
  8.50000000E-01  8.50000000E-01  8.50000000E-01  8.50000000E-01  8.50000000E-01
  8.50000000E-01  8.50000000E-01  8.50000000E-01  8.50000000E-01  8.50000000E-01
  8.50000000E-01  8.50000000E-01  8.50000000E-01  8.50000000E-01  8.50000000E-01
  8.50000000E-01  8.50000000E-01  8.50000000E-01  8.50000000E-01  8.50000000E-01
  8.50000000E-01  8.50000000E-01  8.50000000E-01  8.50000000E-01  8.50000000E-01
  8.50000000E-01  8.50000000E-01  8.50000000E-01  8.50000000E-01  8.50000000E-01
  8.50000000E-01  8.50000000E-01  8.50000000E-01  8.50000000E-01  8.50000000E-01
  8.50000000E-01  8.50000000E-01  8.50000000E-01  8.50000000E-01  8.50000000E-01
  8.50000000E-01  8.50000000E-01  8.50000000E-01  8.50000000E-01  8.50000000E-01
  8.50000000E-01  8.50000000E-01  8.50000000E-01  8.50000000E-01  8.50000000E-01
  8.50000000E-01  8.50000000E-01  8.50000000E-01  8.50000000E-01  8.50000000E-01
  8.50000000E-01  8.50000000E-01  8.50000000E-01  8.50000000E-01  8.50000000E-01
  8.50000000E-01  8.50000000E-01  8.50000000E-01  8.50000000E-01  8.50000000E-01
  8.50000000E-01  8.50000000E-01  8.50000000E-01  8.50000000E-01  8.50000000E-01
  8.50000000E-01  8.50000000E-01  8.50000000E-01  8.50000000E-01  8.50000000E-01
  8.50000000E-01  8.50000000E-01  8.50000000E-01  8.50000000E-01  8.50000000E-01
  8.50000000E-01  8.50000000E-01  8.50000000E-01  8.50000000E-01  8.50000000E-01
  8.50000000E-01  8.50000000E-01  8.50000000E-01  8.50000000E-01  8.50000000E-01
  8.50000000E-01  8.50000000E-01  8.50000000E-01  8.50000000E-01  8.50000000E-01
  8.50000000E-01  8.50000000E-01  8.50000000E-01  8.50000000E-01  8.50000000E-01
  8.50000000E-01  8.50000000E-01  8.50000000E-01  8.50000000E-01  8.50000000E-01
  8.50000000E-01  8.50000000E-01  8.50000000E-01  8.50000000E-01  8.50000000E-01
  8.50000000E-01  8.50000000E-01  8.50000000E-01  8.50000000E-01  8.50000000E-01
  8.50000000E-01  8.50000000E-01  8.50000000E-01  8.50000000E-01  8.50000000E-01
  8.50000000E-01  8.50000000E-01  8.50000000E-01  8.50000000E-01  8.50000000E-01
  8.50000000E-01  8.50000000E-01  8.50000000E-01  8.50000000E-01  8.50000000E-01
  8.50000000E-01  8.50000000E-01  8.50000000E-01  8.50000000E-01  8.50000000E-01
  8.50000000E-01  8.50000000E-01  8.50000000E-01  8.50000000E-01  8.50000000E-01
  8.50000000E-01  8.50000000E-01  8.50000000E-01  8.50000000E-01  8.50000000E-01
  8.50000000E-01  8.50000000E-01  8.50000000E-01  8.50000000E-01  8.50000000E-01
  8.50000000E-01  8.50000000E-01  8.50000000E-01  8.50000000E-01  8.50000000E-01
  8.50000000E-01  8.50000000E-01  8.50000000E-01  8.50000000E-01  8.50000000E-01
  8.50000000E-01  8.50000000E-01  8.50000000E-01  8.50000000E-01  8.50000000E-01
  8.50000000E-01  8.50000000E-01  8.50000000E-01  8.50000000E-01  8.50000000E-01
  8.50000000E-01  8.50000000E-01  8.50000000E-01  8.50000000E-01  8.50000000E-01
  8.50000000E-01  8.50000000E-01  8.50000000E-01  8.50000000E-01  8.50000000E-01
  8.50000000E-01  8.50000000E-01  8.50000000E-01  8.50000000E-01  8.50000000E-01
  8.50000000E-01  8.50000000E-01  8.50000000E-01  8.50000000E-01  8.50000000E-01
  8.50000000E-01  8.50000000E-01  8.50000000E-01  8.50000000E-01  8.50000000E-01
  8.50000000E-01  8.50000000E-01  8.50000000E-01  8.50000000E-01  8.50000000E-01
  8.50000000E-01  8.50000000E-01  8.50000000E-01  8.50000000E-01  8.50000000E-01
  8.50000000E-01  8.50000000E-01  8.50000000E-01  8.50000000E-01  8.50000000E-01
  8.50000000E-01  8.50000000E-01  8.50000000E-01  8.50000000E-01  8.50000000E-01
  8.50000000E-01  8.50000000E-01  8.50000000E-01  8.50000000E-01  8.50000000E-01
  8.50000000E-01  8.50000000E-01  8.50000000E-01  8.50000000E-01  8.50000000E-01
  8.50000000E-01  8.50000000E-01  8.50000000E-01  8.50000000E-01  8.50000000E-01
  8.50000000E-01  8.50000000E-01  8.50000000E-01  8.50000000E-01  8.50000000E-01
  8.50000000E-01  8.50000000E-01  8.50000000E-01  8.50000000E-01  8.50000000E-01
  8.50000000E-01  8.50000000E-01  8.50000000E-01  8.50000000E-01  8.50000000E-01
  8.50000000E-01  8.50000000E-01  8.50000000E-01  8.50000000E-01  8.50000000E-01
  8.50000000E-01  8.50000000E-01  8.50000000E-01  8.50000000E-01  8.50000000E-01
  8.50000000E-01  8.50000000E-01  8.50000000E-01  8.50000000E-01  8.50000000E-01
  8.50000000E-01  8.50000000E-01  8.50000000E-01  8.50000000E-01  8.50000000E-01
  8.50000000E-01  8.50000000E-01  8.50000000E-01  8.50000000E-01  8.50000000E-01
  8.50000000E-01  8.50000000E-01  8.50000000E-01  8.50000000E-01  8.50000000E-01
  8.50000000E-01  8.50000000E-01  8.50000000E-01  8.50000000E-01  8.50000000E-01
  8.50000000E-01  8.50000000E-01  8.50000000E-01  8.50000000E-01  8.50000000E-01
  8.50000000E-01  8.50000000E-01  8.50000000E-01  8.50000000E-01  8.50000000E-01
  8.50000000E-01  8.50000000E-01  8.50000000E-01  8.50000000E-01  8.50000000E-01
  8.50000000E-01  8.50000000E-01  8.50000000E-01  8.50000000E-01  8.50000000E-01
  8.50000000E-01  8.50000000E-01  8.50000000E-01  8.50000000E-01  8.50000000E-01
  8.50000000E-01  8.50000000E-01  8.50000000E-01  8.50000000E-01  8.50000000E-01
  8.50000000E-01  8.50000000E-01  8.50000000E-01  8.50000000E-01  8.50000000E-01
  8.50000000E-01  8.50000000E-01  8.50000000E-01  8.50000000E-01  8.50000000E-01
  8.50000000E-01  8.50000000E-01  8.50000000E-01  8.50000000E-01  8.50000000E-01
  8.50000000E-01  8.50000000E-01  8.50000000E-01  8.50000000E-01  8.50000000E-01
  8.50000000E-01  8.50000000E-01  8.50000000E-01  8.50000000E-01  8.50000000E-01
  8.50000000E-01  8.50000000E-01  8.50000000E-01  8.50000000E-01  8.50000000E-01
  8.50000000E-01  8.50000000E-01  8.50000000E-01  8.50000000E-01  8.50000000E-01
  8.50000000E-01  8.50000000E-01  8.50000000E-01  8.50000000E-01  8.50000000E-01
  8.50000000E-01  8.50000000E-01  8.50000000E-01  8.50000000E-01  8.50000000E-01
  8.50000000E-01  8.50000000E-01  8.50000000E-01  8.50000000E-01  8.50000000E-01
  8.50000000E-01  8.50000000E-01  8.50000000E-01  8.50000000E-01  8.50000000E-01
  8.50000000E-01  8.50000000E-01  8.50000000E-01  8.50000000E-01  8.50000000E-01
  8.50000000E-01  8.50000000E-01  8.50000000E-01  8.50000000E-01  8.50000000E-01
  8.50000000E-01  8.50000000E-01  8.50000000E-01  8.50000000E-01  8.50000000E-01
  8.50000000E-01  8.50000000E-01  8.50000000E-01  8.50000000E-01  8.50000000E-01
  8.50000000E-01  8.50000000E-01  8.50000000E-01  8.50000000E-01  8.50000000E-01
  8.50000000E-01  8.50000000E-01  8.50000000E-01  8.50000000E-01  8.50000000E-01
  8.50000000E-01  8.50000000E-01  8.50000000E-01  8.50000000E-01  8.50000000E-01
  8.50000000E-01  8.50000000E-01  8.50000000E-01  8.50000000E-01  8.50000000E-01
  8.50000000E-01  8.50000000E-01  8.50000000E-01  8.50000000E-01  8.50000000E-01
  8.50000000E-01  8.50000000E-01  8.50000000E-01  8.50000000E-01  8.50000000E-01
  8.50000000E-01  8.50000000E-01  8.50000000E-01  8.50000000E-01  8.50000000E-01
  8.50000000E-01  8.50000000E-01  8.50000000E-01  8.50000000E-01  8.50000000E-01
  8.50000000E-01  8.50000000E-01  8.50000000E-01  8.50000000E-01  8.50000000E-01
  8.50000000E-01  8.50000000E-01  8.50000000E-01  8.50000000E-01  8.50000000E-01
  8.50000000E-01  8.50000000E-01  8.50000000E-01  8.50000000E-01  8.50000000E-01
  8.50000000E-01  8.50000000E-01  8.50000000E-01  8.50000000E-01  8.50000000E-01
  8.50000000E-01  8.50000000E-01  8.50000000E-01  8.50000000E-01  8.50000000E-01
  8.50000000E-01  8.50000000E-01  8.50000000E-01  8.50000000E-01  8.50000000E-01
  8.50000000E-01  8.50000000E-01  8.50000000E-01  8.50000000E-01  8.50000000E-01
  8.50000000E-01  8.50000000E-01  8.50000000E-01  8.50000000E-01  8.50000000E-01
  8.50000000E-01  8.50000000E-01  8.50000000E-01  8.50000000E-01  8.50000000E-01
  8.50000000E-01  8.50000000E-01  8.50000000E-01  8.50000000E-01  8.50000000E-01
  8.50000000E-01  8.50000000E-01  8.50000000E-01  8.50000000E-01  8.50000000E-01
  8.50000000E-01  8.50000000E-01  8.50000000E-01  8.50000000E-01  8.50000000E-01
  8.50000000E-01  8.50000000E-01  8.50000000E-01  8.50000000E-01  8.50000000E-01
  8.50000000E-01  8.50000000E-01  8.50000000E-01  8.50000000E-01  8.50000000E-01
  8.50000000E-01  8.50000000E-01  8.50000000E-01  8.50000000E-01  8.50000000E-01
  8.50000000E-01  8.50000000E-01  8.50000000E-01  8.50000000E-01  8.50000000E-01
  8.50000000E-01  8.50000000E-01  8.50000000E-01  8.50000000E-01  8.50000000E-01
  8.50000000E-01  8.50000000E-01  8.50000000E-01  8.50000000E-01  8.50000000E-01
  8.50000000E-01  8.50000000E-01  8.50000000E-01  8.50000000E-01  8.50000000E-01
  8.50000000E-01  8.50000000E-01  8.50000000E-01  8.50000000E-01  8.50000000E-01
  8.50000000E-01  8.50000000E-01  8.50000000E-01  8.50000000E-01  8.50000000E-01
  8.50000000E-01  8.50000000E-01  8.50000000E-01  8.50000000E-01  8.50000000E-01
  8.50000000E-01  8.50000000E-01  8.50000000E-01  8.50000000E-01  8.50000000E-01
  8.50000000E-01  8.50000000E-01  8.50000000E-01  8.50000000E-01  8.50000000E-01
  8.50000000E-01  8.50000000E-01  8.50000000E-01  8.50000000E-01  8.50000000E-01
  8.50000000E-01  8.50000000E-01  8.50000000E-01  8.50000000E-01  8.50000000E-01
  8.50000000E-01  8.50000000E-01  8.50000000E-01  8.50000000E-01  8.50000000E-01
  8.50000000E-01  8.50000000E-01  8.50000000E-01  8.50000000E-01  8.50000000E-01
  8.50000000E-01  8.50000000E-01  8.50000000E-01  8.50000000E-01  8.50000000E-01
  8.50000000E-01  8.50000000E-01  8.50000000E-01  8.50000000E-01  8.50000000E-01
  8.50000000E-01  8.50000000E-01  8.50000000E-01  8.50000000E-01  8.50000000E-01
  8.50000000E-01  8.50000000E-01  8.50000000E-01  8.50000000E-01  8.50000000E-01
  8.50000000E-01  8.50000000E-01  8.50000000E-01  8.50000000E-01  8.50000000E-01
  8.50000000E-01  8.50000000E-01  8.50000000E-01  8.50000000E-01  8.50000000E-01
  8.50000000E-01  8.50000000E-01  8.50000000E-01  8.50000000E-01  8.50000000E-01
  8.50000000E-01  8.50000000E-01  8.50000000E-01  8.50000000E-01  8.50000000E-01
  8.50000000E-01  8.50000000E-01  8.50000000E-01  8.50000000E-01  8.50000000E-01
  8.50000000E-01  8.50000000E-01  8.50000000E-01  8.50000000E-01  8.50000000E-01
  8.50000000E-01  8.50000000E-01  8.50000000E-01  8.50000000E-01  8.50000000E-01
  8.50000000E-01  8.50000000E-01  8.50000000E-01  8.50000000E-01  8.50000000E-01
  8.50000000E-01  8.50000000E-01  8.50000000E-01  8.50000000E-01  8.50000000E-01
  8.50000000E-01  8.50000000E-01  8.50000000E-01  8.50000000E-01  8.50000000E-01
  8.50000000E-01  8.50000000E-01  8.50000000E-01  8.50000000E-01  8.50000000E-01
  8.50000000E-01  8.50000000E-01  8.50000000E-01  8.50000000E-01  8.50000000E-01
  8.50000000E-01  8.50000000E-01  8.50000000E-01  8.50000000E-01  8.50000000E-01
  8.50000000E-01  8.50000000E-01  8.50000000E-01  8.50000000E-01  8.50000000E-01
  8.50000000E-01  8.50000000E-01  8.50000000E-01  8.50000000E-01  8.50000000E-01
  8.50000000E-01  8.50000000E-01  8.50000000E-01  8.50000000E-01  8.50000000E-01
  8.50000000E-01  8.50000000E-01  8.50000000E-01  8.50000000E-01  8.50000000E-01
  8.50000000E-01  8.50000000E-01  8.50000000E-01  8.50000000E-01  8.50000000E-01
  8.50000000E-01  8.50000000E-01  8.50000000E-01  8.50000000E-01  8.50000000E-01
  8.50000000E-01  8.50000000E-01  8.50000000E-01  8.50000000E-01  8.50000000E-01
  8.50000000E-01  8.50000000E-01  8.50000000E-01  8.50000000E-01  8.50000000E-01
  8.50000000E-01  8.50000000E-01  8.50000000E-01  8.50000000E-01  8.50000000E-01
  8.50000000E-01  8.50000000E-01  8.50000000E-01  8.50000000E-01  8.50000000E-01
  8.50000000E-01  8.50000000E-01  8.50000000E-01  8.50000000E-01  8.50000000E-01
  8.50000000E-01  8.50000000E-01  8.50000000E-01  8.50000000E-01  8.50000000E-01
  8.50000000E-01  8.50000000E-01  8.50000000E-01  8.50000000E-01  8.50000000E-01
  8.50000000E-01  8.50000000E-01  8.50000000E-01  8.50000000E-01  8.50000000E-01
  8.50000000E-01  8.50000000E-01  8.50000000E-01  8.50000000E-01  8.50000000E-01
  8.50000000E-01  8.50000000E-01  8.50000000E-01  8.50000000E-01  8.50000000E-01
  8.50000000E-01  8.50000000E-01  8.50000000E-01  8.50000000E-01  8.50000000E-01
  8.50000000E-01  8.50000000E-01  8.50000000E-01  8.50000000E-01  8.50000000E-01
  8.50000000E-01  8.50000000E-01  8.50000000E-01  8.50000000E-01  8.50000000E-01
  8.50000000E-01  8.50000000E-01  8.50000000E-01  8.50000000E-01  8.50000000E-01
  8.50000000E-01  8.50000000E-01  8.50000000E-01  8.50000000E-01  8.50000000E-01
  8.50000000E-01  8.50000000E-01  8.50000000E-01  8.50000000E-01  8.50000000E-01
  8.50000000E-01  8.50000000E-01  8.50000000E-01  8.50000000E-01  8.50000000E-01
  8.50000000E-01  8.50000000E-01  8.50000000E-01  8.50000000E-01  8.50000000E-01
  8.50000000E-01  8.50000000E-01  8.50000000E-01  8.50000000E-01  8.50000000E-01
  8.50000000E-01  8.50000000E-01  8.50000000E-01  8.50000000E-01  8.50000000E-01
  8.50000000E-01  8.50000000E-01  8.50000000E-01  8.50000000E-01  8.50000000E-01
  8.50000000E-01  8.50000000E-01  8.50000000E-01  8.50000000E-01  8.50000000E-01
  8.50000000E-01  8.50000000E-01  8.50000000E-01  8.50000000E-01  8.50000000E-01
  8.50000000E-01  8.50000000E-01  8.50000000E-01  8.50000000E-01  8.50000000E-01
  8.50000000E-01  8.50000000E-01  8.50000000E-01  8.50000000E-01  8.50000000E-01
  8.50000000E-01  8.50000000E-01  8.50000000E-01  8.50000000E-01  8.50000000E-01
  8.50000000E-01  8.50000000E-01  8.50000000E-01  8.50000000E-01  8.50000000E-01
  8.50000000E-01  8.50000000E-01  8.50000000E-01  8.50000000E-01  8.50000000E-01
  8.50000000E-01  8.50000000E-01  8.50000000E-01  8.50000000E-01  8.50000000E-01
  8.50000000E-01  8.50000000E-01  8.50000000E-01  8.50000000E-01  8.50000000E-01
  8.50000000E-01  8.50000000E-01  8.50000000E-01  8.50000000E-01  8.50000000E-01
  8.50000000E-01  8.50000000E-01  8.50000000E-01  8.50000000E-01  8.50000000E-01
  8.50000000E-01  8.50000000E-01  8.50000000E-01  8.50000000E-01  8.50000000E-01
  8.50000000E-01  8.50000000E-01  8.50000000E-01  8.50000000E-01  8.50000000E-01
  8.50000000E-01  8.50000000E-01  8.50000000E-01  8.50000000E-01  8.50000000E-01
  8.50000000E-01  8.50000000E-01  8.50000000E-01  8.50000000E-01  8.50000000E-01
  8.50000000E-01  8.50000000E-01  8.50000000E-01  8.50000000E-01  8.50000000E-01
  8.50000000E-01  8.50000000E-01  8.50000000E-01  8.50000000E-01  8.50000000E-01
  8.50000000E-01  8.50000000E-01  8.50000000E-01  8.50000000E-01  8.50000000E-01
  8.50000000E-01  8.50000000E-01  8.50000000E-01  8.50000000E-01  8.50000000E-01
  8.50000000E-01  8.50000000E-01  8.50000000E-01  8.50000000E-01  8.50000000E-01
  8.50000000E-01  8.50000000E-01  8.50000000E-01  8.50000000E-01  8.50000000E-01
  8.50000000E-01  8.50000000E-01  8.50000000E-01  8.50000000E-01  8.50000000E-01
  8.50000000E-01  8.50000000E-01  8.50000000E-01  8.50000000E-01  8.50000000E-01
  8.50000000E-01  8.50000000E-01  8.50000000E-01  8.50000000E-01  8.50000000E-01
  8.50000000E-01  8.50000000E-01  8.50000000E-01  8.50000000E-01  8.50000000E-01
  8.50000000E-01  8.50000000E-01  8.50000000E-01  8.50000000E-01  8.50000000E-01
  8.50000000E-01  8.50000000E-01  8.50000000E-01  8.50000000E-01  8.50000000E-01
  8.50000000E-01  8.50000000E-01  8.50000000E-01  8.50000000E-01  8.50000000E-01
  8.50000000E-01  8.50000000E-01  8.50000000E-01  8.50000000E-01  8.50000000E-01
  8.50000000E-01  8.50000000E-01  8.50000000E-01  8.50000000E-01  8.50000000E-01
  8.50000000E-01  8.50000000E-01  8.50000000E-01  8.50000000E-01  8.50000000E-01
  8.50000000E-01  8.50000000E-01  8.50000000E-01  8.50000000E-01  8.50000000E-01
  8.50000000E-01  8.50000000E-01  8.50000000E-01  8.50000000E-01  8.50000000E-01
  8.50000000E-01  8.50000000E-01  8.50000000E-01  8.50000000E-01  8.50000000E-01
  8.50000000E-01  8.50000000E-01  8.50000000E-01  8.50000000E-01  8.50000000E-01
  8.50000000E-01  8.50000000E-01  8.50000000E-01  8.50000000E-01  8.50000000E-01
  8.50000000E-01  8.50000000E-01  8.50000000E-01  8.50000000E-01  8.50000000E-01
  8.50000000E-01  8.50000000E-01  8.50000000E-01  8.50000000E-01  8.50000000E-01
  8.50000000E-01  8.50000000E-01  8.50000000E-01  8.50000000E-01  8.50000000E-01
  8.50000000E-01  8.50000000E-01  8.50000000E-01  8.50000000E-01  8.50000000E-01
  8.50000000E-01  8.50000000E-01  8.50000000E-01  8.50000000E-01  8.50000000E-01
  8.50000000E-01  8.50000000E-01  8.50000000E-01  8.50000000E-01  8.50000000E-01
  8.50000000E-01  8.50000000E-01  8.50000000E-01  8.50000000E-01  8.50000000E-01
  8.50000000E-01  8.50000000E-01  8.50000000E-01  8.50000000E-01  8.50000000E-01
  8.50000000E-01  8.50000000E-01  8.50000000E-01  8.50000000E-01  8.50000000E-01
  8.50000000E-01  8.50000000E-01  8.50000000E-01  8.50000000E-01  8.50000000E-01
  8.50000000E-01  8.50000000E-01  8.50000000E-01  8.50000000E-01  8.50000000E-01
  8.50000000E-01  8.50000000E-01  8.50000000E-01  8.50000000E-01  8.50000000E-01
  8.50000000E-01  8.50000000E-01  8.50000000E-01  8.50000000E-01  8.50000000E-01
  8.50000000E-01  8.50000000E-01  8.50000000E-01  8.50000000E-01  8.50000000E-01
  8.50000000E-01  8.50000000E-01  8.50000000E-01  8.50000000E-01  8.50000000E-01
  8.50000000E-01  8.50000000E-01  8.50000000E-01  8.50000000E-01  8.50000000E-01
  8.50000000E-01  8.50000000E-01  8.50000000E-01  8.50000000E-01  8.50000000E-01
  8.50000000E-01  8.50000000E-01  8.50000000E-01  8.50000000E-01  8.50000000E-01
  8.50000000E-01  8.50000000E-01  8.50000000E-01  8.50000000E-01  8.50000000E-01
  8.50000000E-01  8.50000000E-01  8.50000000E-01  8.50000000E-01  8.50000000E-01
  8.50000000E-01  8.50000000E-01  8.50000000E-01  8.50000000E-01  8.50000000E-01
  8.50000000E-01  8.50000000E-01  8.50000000E-01  8.50000000E-01  8.50000000E-01
  8.50000000E-01  8.50000000E-01  8.50000000E-01  8.50000000E-01  8.50000000E-01
  8.50000000E-01  8.50000000E-01  8.50000000E-01  8.50000000E-01  8.50000000E-01
  8.50000000E-01  8.50000000E-01  8.50000000E-01  8.50000000E-01  8.50000000E-01
  8.50000000E-01  8.50000000E-01  8.50000000E-01  8.50000000E-01  8.50000000E-01
  8.50000000E-01  8.50000000E-01  8.50000000E-01  8.50000000E-01  8.50000000E-01
  8.50000000E-01  8.50000000E-01  8.50000000E-01  8.50000000E-01  8.50000000E-01
  8.50000000E-01  8.50000000E-01  8.50000000E-01  8.50000000E-01  8.50000000E-01
  8.50000000E-01  8.50000000E-01  8.50000000E-01  8.50000000E-01  8.50000000E-01
  8.50000000E-01  8.50000000E-01  8.50000000E-01  8.50000000E-01  8.50000000E-01
  8.50000000E-01  8.50000000E-01  8.50000000E-01  8.50000000E-01  8.50000000E-01
  8.50000000E-01  8.50000000E-01  8.50000000E-01  8.50000000E-01  8.50000000E-01
  8.50000000E-01  8.50000000E-01  8.50000000E-01  8.50000000E-01  8.50000000E-01
  8.50000000E-01  8.50000000E-01  8.50000000E-01  8.50000000E-01  8.50000000E-01
  8.50000000E-01  8.50000000E-01  8.50000000E-01  8.50000000E-01  8.50000000E-01
  8.50000000E-01  8.50000000E-01  8.50000000E-01  8.50000000E-01  8.50000000E-01
  8.50000000E-01  8.50000000E-01  8.50000000E-01  8.50000000E-01  8.50000000E-01
  8.50000000E-01  8.50000000E-01  8.50000000E-01  8.50000000E-01  8.50000000E-01
  8.50000000E-01  8.50000000E-01  8.50000000E-01  8.50000000E-01  8.50000000E-01
  8.50000000E-01  8.50000000E-01  8.50000000E-01  8.50000000E-01  8.50000000E-01
  8.50000000E-01  8.50000000E-01  8.50000000E-01  8.50000000E-01  8.50000000E-01
  8.50000000E-01  8.50000000E-01  8.50000000E-01  8.50000000E-01  8.50000000E-01
  8.50000000E-01  8.50000000E-01  8.50000000E-01  8.50000000E-01  8.50000000E-01
  8.50000000E-01  8.50000000E-01  8.50000000E-01  8.50000000E-01  8.50000000E-01
  8.50000000E-01  8.50000000E-01  8.50000000E-01  8.50000000E-01  8.50000000E-01
  8.50000000E-01  8.50000000E-01  8.50000000E-01  8.50000000E-01  8.50000000E-01
  8.50000000E-01  8.50000000E-01  8.50000000E-01  8.50000000E-01  8.50000000E-01
  8.50000000E-01  8.50000000E-01  8.50000000E-01  8.50000000E-01  8.50000000E-01
  8.50000000E-01  8.50000000E-01  8.50000000E-01  8.50000000E-01  8.50000000E-01
  8.50000000E-01  8.50000000E-01  8.50000000E-01  8.50000000E-01  8.50000000E-01
  8.50000000E-01  8.50000000E-01  8.50000000E-01  8.50000000E-01  8.50000000E-01
  8.50000000E-01  8.50000000E-01  8.50000000E-01  8.50000000E-01  8.50000000E-01
  8.50000000E-01  8.50000000E-01  8.50000000E-01  8.50000000E-01  8.50000000E-01
  8.50000000E-01  8.50000000E-01  8.50000000E-01  8.50000000E-01  8.50000000E-01
  8.50000000E-01  8.50000000E-01  8.50000000E-01  8.50000000E-01  8.50000000E-01
  8.50000000E-01  8.50000000E-01  8.50000000E-01  8.50000000E-01  8.50000000E-01
  8.50000000E-01  8.50000000E-01  8.50000000E-01  8.50000000E-01  8.50000000E-01
  8.50000000E-01  8.50000000E-01  8.50000000E-01  8.50000000E-01  8.50000000E-01
  8.50000000E-01  8.50000000E-01  8.50000000E-01  8.50000000E-01  8.50000000E-01
  8.50000000E-01  8.50000000E-01  8.50000000E-01  8.50000000E-01  8.50000000E-01
  8.50000000E-01  8.50000000E-01  8.50000000E-01  8.50000000E-01  8.50000000E-01
  8.50000000E-01  8.50000000E-01  8.50000000E-01  8.50000000E-01  8.50000000E-01
  8.50000000E-01  8.50000000E-01  8.50000000E-01  8.50000000E-01  8.50000000E-01
  8.50000000E-01  8.50000000E-01  8.50000000E-01  8.50000000E-01  8.50000000E-01
  8.50000000E-01  8.50000000E-01  8.50000000E-01  8.50000000E-01  8.50000000E-01
  8.50000000E-01  8.50000000E-01  8.50000000E-01  8.50000000E-01  8.50000000E-01
  8.50000000E-01  8.50000000E-01  8.50000000E-01  8.50000000E-01  8.50000000E-01
  8.50000000E-01  8.50000000E-01  8.50000000E-01  8.50000000E-01  8.50000000E-01
  8.50000000E-01  8.50000000E-01  8.50000000E-01  8.50000000E-01  8.50000000E-01
  8.50000000E-01  8.50000000E-01  8.50000000E-01  8.50000000E-01  8.50000000E-01
  8.50000000E-01  8.50000000E-01  8.50000000E-01  8.50000000E-01  8.50000000E-01
  8.50000000E-01  8.50000000E-01  8.50000000E-01  8.50000000E-01  8.50000000E-01
  8.50000000E-01  8.50000000E-01  8.50000000E-01  8.50000000E-01  8.50000000E-01
  8.50000000E-01  8.50000000E-01  8.50000000E-01  8.50000000E-01  8.50000000E-01
  8.50000000E-01  8.50000000E-01  8.50000000E-01  8.50000000E-01  8.50000000E-01
  8.50000000E-01  8.50000000E-01  8.50000000E-01  8.50000000E-01  8.50000000E-01
  8.50000000E-01  8.50000000E-01  8.50000000E-01  8.50000000E-01  8.50000000E-01
  8.50000000E-01  8.50000000E-01  8.50000000E-01  8.50000000E-01  8.50000000E-01
  8.50000000E-01  8.50000000E-01  8.50000000E-01  8.50000000E-01  8.50000000E-01
  8.50000000E-01  8.50000000E-01  8.50000000E-01  8.50000000E-01  8.50000000E-01
  8.50000000E-01  8.50000000E-01  8.50000000E-01  8.50000000E-01  8.50000000E-01
  8.50000000E-01  8.50000000E-01  8.50000000E-01  8.50000000E-01  8.50000000E-01
  8.50000000E-01  8.50000000E-01  8.50000000E-01  8.50000000E-01  8.50000000E-01
  8.50000000E-01  8.50000000E-01  8.50000000E-01  8.50000000E-01  8.50000000E-01
  8.50000000E-01  8.50000000E-01  8.50000000E-01  8.50000000E-01  8.50000000E-01
  8.50000000E-01  8.50000000E-01  8.50000000E-01  8.50000000E-01  8.50000000E-01
  8.50000000E-01  8.50000000E-01  8.50000000E-01  8.50000000E-01  8.50000000E-01
  8.50000000E-01  8.50000000E-01  8.50000000E-01  8.50000000E-01  8.50000000E-01
  8.50000000E-01  8.50000000E-01  8.50000000E-01  8.50000000E-01  8.50000000E-01
  8.50000000E-01  8.50000000E-01  8.50000000E-01  8.50000000E-01  8.50000000E-01
  8.50000000E-01  8.50000000E-01  8.50000000E-01  8.50000000E-01  8.50000000E-01
  8.50000000E-01  8.50000000E-01  8.50000000E-01  8.50000000E-01  8.50000000E-01
  8.50000000E-01  8.50000000E-01  8.50000000E-01  8.50000000E-01  8.50000000E-01
  8.50000000E-01  8.50000000E-01  8.50000000E-01  8.50000000E-01  8.50000000E-01
  8.50000000E-01  8.50000000E-01  8.50000000E-01  8.50000000E-01  8.50000000E-01
  8.50000000E-01  8.50000000E-01  8.50000000E-01  8.50000000E-01  8.50000000E-01
  8.50000000E-01  8.50000000E-01  8.50000000E-01  8.50000000E-01  8.50000000E-01
  8.50000000E-01  8.50000000E-01  8.50000000E-01  8.50000000E-01  8.50000000E-01
  8.50000000E-01  8.50000000E-01  8.50000000E-01  8.50000000E-01  8.50000000E-01
  8.50000000E-01  8.50000000E-01  8.50000000E-01  8.50000000E-01  8.50000000E-01
  8.50000000E-01  8.50000000E-01  8.50000000E-01  8.50000000E-01  8.50000000E-01
  8.50000000E-01  8.50000000E-01  8.50000000E-01  8.50000000E-01  8.50000000E-01
  8.50000000E-01  8.50000000E-01  8.50000000E-01  8.50000000E-01  8.50000000E-01
  8.50000000E-01  8.50000000E-01  8.50000000E-01  8.50000000E-01  8.50000000E-01
  8.50000000E-01  8.50000000E-01  8.50000000E-01  8.50000000E-01  8.50000000E-01
  8.50000000E-01  8.50000000E-01  8.50000000E-01  8.50000000E-01  8.50000000E-01
  8.50000000E-01  8.50000000E-01  8.50000000E-01  8.50000000E-01  8.50000000E-01
  8.50000000E-01  8.50000000E-01  8.50000000E-01  8.50000000E-01  8.50000000E-01
  8.50000000E-01  8.50000000E-01  8.50000000E-01  8.50000000E-01  8.50000000E-01
  8.50000000E-01  8.50000000E-01  8.50000000E-01  8.50000000E-01  8.50000000E-01
  8.50000000E-01  8.50000000E-01  8.50000000E-01  8.50000000E-01  8.50000000E-01
  8.50000000E-01  8.50000000E-01  8.50000000E-01  8.50000000E-01  8.50000000E-01
  8.50000000E-01  8.50000000E-01  8.50000000E-01  8.50000000E-01  8.50000000E-01
  8.50000000E-01  8.50000000E-01  8.50000000E-01  8.50000000E-01  8.50000000E-01
  8.50000000E-01  8.50000000E-01  8.50000000E-01  8.50000000E-01  8.50000000E-01
  8.50000000E-01  8.50000000E-01  8.50000000E-01  8.50000000E-01  8.50000000E-01
  8.50000000E-01  8.50000000E-01  8.50000000E-01  8.50000000E-01  8.50000000E-01
  8.50000000E-01  8.50000000E-01  8.50000000E-01  8.50000000E-01  8.50000000E-01
  8.50000000E-01  8.50000000E-01  8.50000000E-01  8.50000000E-01  8.50000000E-01
  8.50000000E-01  8.50000000E-01  8.50000000E-01  8.50000000E-01  8.50000000E-01
  8.50000000E-01  8.50000000E-01  8.50000000E-01  8.50000000E-01  8.50000000E-01
  8.50000000E-01  8.50000000E-01  8.50000000E-01  8.50000000E-01  8.50000000E-01
  8.50000000E-01  8.50000000E-01  8.50000000E-01  8.50000000E-01  8.50000000E-01
  8.50000000E-01  8.50000000E-01  8.50000000E-01  8.50000000E-01  8.50000000E-01
  8.50000000E-01  8.50000000E-01  8.50000000E-01  8.50000000E-01  8.50000000E-01
  8.50000000E-01  8.50000000E-01  8.50000000E-01  8.50000000E-01  8.50000000E-01
  8.50000000E-01  8.50000000E-01  8.50000000E-01  8.50000000E-01  8.50000000E-01
  8.50000000E-01  8.50000000E-01  8.50000000E-01  8.50000000E-01  8.50000000E-01
  8.50000000E-01  8.50000000E-01  8.50000000E-01  8.50000000E-01  8.50000000E-01
  8.50000000E-01  8.50000000E-01  8.50000000E-01  8.50000000E-01  8.50000000E-01
  8.50000000E-01  8.50000000E-01  8.50000000E-01  8.50000000E-01  8.50000000E-01
  8.50000000E-01  8.50000000E-01  8.50000000E-01  8.50000000E-01  8.50000000E-01
  8.50000000E-01  8.50000000E-01  8.50000000E-01  8.50000000E-01  8.50000000E-01
  8.50000000E-01  8.50000000E-01  8.50000000E-01  8.50000000E-01  8.50000000E-01
  8.50000000E-01  8.50000000E-01  8.50000000E-01  8.50000000E-01  8.50000000E-01
  8.50000000E-01  8.50000000E-01  8.50000000E-01  8.50000000E-01  8.50000000E-01
  8.50000000E-01  8.50000000E-01  8.50000000E-01  8.50000000E-01  8.50000000E-01
  8.50000000E-01  8.50000000E-01  8.50000000E-01  8.50000000E-01  8.50000000E-01
  8.50000000E-01  8.50000000E-01  8.50000000E-01  8.50000000E-01  8.50000000E-01
  8.50000000E-01  8.50000000E-01  8.50000000E-01  8.50000000E-01  8.50000000E-01
  8.50000000E-01  8.50000000E-01  8.50000000E-01  8.50000000E-01  8.50000000E-01
  8.50000000E-01  8.50000000E-01  8.50000000E-01  8.50000000E-01  8.50000000E-01
  8.50000000E-01  8.50000000E-01  8.50000000E-01  8.50000000E-01  8.50000000E-01
  8.50000000E-01  8.50000000E-01  8.50000000E-01  8.50000000E-01  8.50000000E-01
  8.50000000E-01  8.50000000E-01  8.50000000E-01  8.50000000E-01  8.50000000E-01
  8.50000000E-01  8.50000000E-01  8.50000000E-01  8.50000000E-01  8.50000000E-01
  8.50000000E-01  8.50000000E-01  8.50000000E-01  8.50000000E-01  8.50000000E-01
  8.50000000E-01  8.50000000E-01  8.50000000E-01  8.50000000E-01  8.50000000E-01
  8.50000000E-01  8.50000000E-01  8.50000000E-01  8.50000000E-01  8.50000000E-01
  8.50000000E-01  8.50000000E-01  8.50000000E-01  8.50000000E-01  8.50000000E-01
  8.50000000E-01  8.50000000E-01  8.50000000E-01  8.50000000E-01  8.50000000E-01
  8.50000000E-01  8.50000000E-01  8.50000000E-01  8.50000000E-01  8.50000000E-01
  8.50000000E-01  8.50000000E-01  8.50000000E-01  8.50000000E-01  8.50000000E-01
  8.50000000E-01  8.50000000E-01  8.50000000E-01  8.50000000E-01  8.50000000E-01
  8.50000000E-01  8.50000000E-01  8.50000000E-01  8.50000000E-01  8.50000000E-01
  8.50000000E-01  8.50000000E-01  8.50000000E-01  8.50000000E-01  8.50000000E-01
  8.50000000E-01  8.50000000E-01  8.50000000E-01  8.50000000E-01  8.50000000E-01
  8.50000000E-01  8.50000000E-01  8.50000000E-01  8.50000000E-01  8.50000000E-01
  8.50000000E-01  8.50000000E-01  8.50000000E-01  8.50000000E-01  8.50000000E-01
  8.50000000E-01  8.50000000E-01  8.50000000E-01  8.50000000E-01  8.50000000E-01
  8.50000000E-01  8.50000000E-01  8.50000000E-01  8.50000000E-01  8.50000000E-01
  8.50000000E-01  8.50000000E-01  8.50000000E-01  8.50000000E-01  8.50000000E-01
  8.50000000E-01  8.50000000E-01  8.50000000E-01  8.50000000E-01  8.50000000E-01
  8.50000000E-01  8.50000000E-01  8.50000000E-01  8.50000000E-01  8.50000000E-01
  8.50000000E-01  8.50000000E-01  8.50000000E-01  8.50000000E-01  8.50000000E-01
  8.50000000E-01  8.50000000E-01  8.50000000E-01  8.50000000E-01  8.50000000E-01
  8.50000000E-01  8.50000000E-01  8.50000000E-01  8.50000000E-01  8.50000000E-01
  8.50000000E-01  8.50000000E-01  8.50000000E-01  8.50000000E-01  8.50000000E-01
  8.50000000E-01  8.50000000E-01  8.50000000E-01  8.50000000E-01  8.50000000E-01
  8.50000000E-01  8.50000000E-01  8.50000000E-01  8.50000000E-01  8.50000000E-01
  8.50000000E-01  8.50000000E-01  8.50000000E-01  8.50000000E-01  8.50000000E-01
  8.50000000E-01  8.50000000E-01  8.50000000E-01  8.50000000E-01  8.50000000E-01
  8.50000000E-01  8.50000000E-01  8.50000000E-01  8.50000000E-01  8.50000000E-01
  8.50000000E-01  8.50000000E-01  8.50000000E-01  8.50000000E-01  8.50000000E-01
  8.50000000E-01  8.50000000E-01  8.50000000E-01  8.50000000E-01  8.50000000E-01
  8.50000000E-01  8.50000000E-01  8.50000000E-01  8.50000000E-01  8.50000000E-01
  8.50000000E-01  8.50000000E-01  8.50000000E-01  8.50000000E-01  8.50000000E-01
  8.50000000E-01  8.50000000E-01  8.50000000E-01  8.50000000E-01  8.50000000E-01
  8.50000000E-01  8.50000000E-01  8.50000000E-01  8.50000000E-01  8.50000000E-01
  8.50000000E-01  8.50000000E-01  8.50000000E-01  8.50000000E-01  8.50000000E-01
  8.50000000E-01  8.50000000E-01  8.50000000E-01  8.50000000E-01  8.50000000E-01
  8.50000000E-01  8.50000000E-01  8.50000000E-01  8.50000000E-01  8.50000000E-01
  8.50000000E-01  8.50000000E-01  8.50000000E-01  8.50000000E-01  8.50000000E-01
  8.50000000E-01  8.50000000E-01  8.50000000E-01  8.50000000E-01  8.50000000E-01
  8.50000000E-01  8.50000000E-01  8.50000000E-01  8.50000000E-01  8.50000000E-01
  8.50000000E-01  8.50000000E-01  8.50000000E-01  8.50000000E-01  8.50000000E-01
  8.50000000E-01  8.50000000E-01  8.50000000E-01  8.50000000E-01  8.50000000E-01
  8.50000000E-01  8.50000000E-01  8.50000000E-01  8.50000000E-01  8.50000000E-01
  8.50000000E-01  8.50000000E-01  8.50000000E-01  8.50000000E-01  8.50000000E-01
  8.50000000E-01  8.50000000E-01  8.50000000E-01  8.50000000E-01  8.50000000E-01
  8.50000000E-01  8.50000000E-01  8.50000000E-01  8.50000000E-01  8.50000000E-01
  8.50000000E-01  8.50000000E-01  8.50000000E-01  8.50000000E-01  8.50000000E-01
  8.50000000E-01  8.50000000E-01  8.50000000E-01  8.50000000E-01  8.50000000E-01
  8.50000000E-01  8.50000000E-01  8.50000000E-01  8.50000000E-01  8.50000000E-01
  8.50000000E-01  8.50000000E-01  8.50000000E-01  8.50000000E-01  8.50000000E-01
  8.50000000E-01  8.50000000E-01  8.50000000E-01  8.50000000E-01  8.50000000E-01
  8.50000000E-01  8.50000000E-01  8.50000000E-01  8.50000000E-01  8.50000000E-01
  8.50000000E-01  8.50000000E-01  8.50000000E-01  8.50000000E-01  8.50000000E-01
  8.50000000E-01  8.50000000E-01  8.50000000E-01  8.50000000E-01  8.50000000E-01
  8.50000000E-01  8.50000000E-01  8.50000000E-01  8.50000000E-01  8.50000000E-01
  8.50000000E-01  8.50000000E-01  8.50000000E-01  8.50000000E-01  8.50000000E-01
  8.50000000E-01  8.50000000E-01  8.50000000E-01  8.50000000E-01  8.50000000E-01
  8.50000000E-01  8.50000000E-01  8.50000000E-01  8.50000000E-01  8.50000000E-01
  8.50000000E-01  8.50000000E-01  8.50000000E-01  8.50000000E-01  8.50000000E-01
  8.50000000E-01  8.50000000E-01  8.50000000E-01  8.50000000E-01  8.50000000E-01
  8.50000000E-01  8.50000000E-01  8.50000000E-01  8.50000000E-01  8.50000000E-01
  8.50000000E-01  8.50000000E-01  8.50000000E-01  8.50000000E-01  8.50000000E-01
  8.50000000E-01  8.50000000E-01  8.50000000E-01  8.50000000E-01  8.50000000E-01
  8.50000000E-01  8.50000000E-01  8.50000000E-01  8.50000000E-01  8.50000000E-01
  8.50000000E-01  8.50000000E-01  8.50000000E-01  8.50000000E-01  8.50000000E-01
  8.50000000E-01  8.50000000E-01  8.50000000E-01  8.50000000E-01  8.50000000E-01
  8.50000000E-01  8.50000000E-01  8.50000000E-01  8.50000000E-01  8.50000000E-01
  8.50000000E-01  8.50000000E-01  8.50000000E-01  8.50000000E-01  8.50000000E-01
  8.50000000E-01  8.50000000E-01  8.50000000E-01  8.50000000E-01  8.50000000E-01
  8.50000000E-01  8.50000000E-01  8.50000000E-01  8.50000000E-01  8.50000000E-01
  8.50000000E-01  8.50000000E-01  8.50000000E-01  8.50000000E-01  8.50000000E-01
  8.50000000E-01  8.50000000E-01  8.50000000E-01  8.50000000E-01  8.50000000E-01
  8.50000000E-01  8.50000000E-01  8.50000000E-01  8.50000000E-01  8.50000000E-01
  8.50000000E-01  8.50000000E-01  8.50000000E-01  8.50000000E-01  8.50000000E-01
  8.50000000E-01  8.50000000E-01  8.50000000E-01  8.50000000E-01  8.50000000E-01
  8.50000000E-01  8.50000000E-01  8.50000000E-01  8.50000000E-01  8.50000000E-01
  8.50000000E-01  8.50000000E-01  8.50000000E-01  8.50000000E-01  8.50000000E-01
  8.50000000E-01  8.50000000E-01  8.50000000E-01  8.50000000E-01  8.50000000E-01
  8.50000000E-01  8.50000000E-01  8.50000000E-01  8.50000000E-01  8.50000000E-01
  8.50000000E-01  8.50000000E-01  8.50000000E-01  8.50000000E-01  8.50000000E-01
  8.50000000E-01  8.50000000E-01  8.50000000E-01  8.50000000E-01  8.50000000E-01
  8.50000000E-01  8.50000000E-01  8.50000000E-01  8.50000000E-01  8.50000000E-01
  8.50000000E-01  8.50000000E-01  8.50000000E-01  8.50000000E-01  8.50000000E-01
  8.50000000E-01  8.50000000E-01  8.50000000E-01  8.50000000E-01  8.50000000E-01
  8.50000000E-01  8.50000000E-01  8.50000000E-01  8.50000000E-01  8.50000000E-01
  8.50000000E-01  8.50000000E-01  8.50000000E-01  8.50000000E-01  8.50000000E-01
  8.50000000E-01  8.50000000E-01  8.50000000E-01  8.50000000E-01  8.50000000E-01
  8.50000000E-01  8.50000000E-01  8.50000000E-01  8.50000000E-01  8.50000000E-01
  8.50000000E-01  8.50000000E-01  8.50000000E-01  8.50000000E-01  8.50000000E-01
  8.50000000E-01  8.50000000E-01  8.50000000E-01  8.50000000E-01  8.50000000E-01
  8.50000000E-01  8.50000000E-01  8.50000000E-01  8.50000000E-01  8.50000000E-01
  8.50000000E-01  8.50000000E-01  8.50000000E-01  8.50000000E-01  8.50000000E-01
  8.50000000E-01  8.50000000E-01  8.50000000E-01  8.50000000E-01  8.50000000E-01
  8.50000000E-01  8.50000000E-01  8.50000000E-01  8.50000000E-01  8.50000000E-01
  8.50000000E-01  8.50000000E-01  8.50000000E-01  8.50000000E-01  8.50000000E-01
  8.50000000E-01  8.50000000E-01  8.50000000E-01  8.50000000E-01  8.50000000E-01
  8.50000000E-01  8.50000000E-01  8.50000000E-01  8.50000000E-01  8.50000000E-01
  8.50000000E-01  8.50000000E-01  8.50000000E-01  8.50000000E-01  8.50000000E-01
  8.50000000E-01  8.50000000E-01  8.50000000E-01  8.50000000E-01  8.50000000E-01
  8.50000000E-01  8.50000000E-01  8.50000000E-01  8.50000000E-01  8.50000000E-01
  8.50000000E-01  8.50000000E-01  8.50000000E-01  8.50000000E-01  8.50000000E-01
  8.50000000E-01  8.50000000E-01  8.50000000E-01  8.50000000E-01  8.50000000E-01
  8.50000000E-01  8.50000000E-01  8.50000000E-01  8.50000000E-01  8.50000000E-01
  8.50000000E-01  8.50000000E-01  8.50000000E-01  8.50000000E-01  8.50000000E-01
  8.50000000E-01  8.50000000E-01  8.50000000E-01  8.50000000E-01  8.50000000E-01
  8.50000000E-01  8.50000000E-01  8.50000000E-01  8.50000000E-01  8.50000000E-01
  8.50000000E-01  8.50000000E-01  8.50000000E-01  8.50000000E-01  8.50000000E-01
  8.50000000E-01  8.50000000E-01  8.50000000E-01  8.50000000E-01  8.50000000E-01
  8.50000000E-01  8.50000000E-01  8.50000000E-01  8.50000000E-01  8.50000000E-01
  8.50000000E-01  8.50000000E-01  8.50000000E-01  8.50000000E-01  8.50000000E-01
  8.50000000E-01  8.50000000E-01  8.50000000E-01  8.50000000E-01  8.50000000E-01
  8.50000000E-01  8.50000000E-01  8.50000000E-01  8.50000000E-01  8.50000000E-01
  8.50000000E-01  8.50000000E-01  8.50000000E-01  8.50000000E-01  8.50000000E-01
  8.50000000E-01  8.50000000E-01  8.50000000E-01  8.50000000E-01  8.50000000E-01
  8.50000000E-01  8.50000000E-01  8.50000000E-01  8.50000000E-01  8.50000000E-01
  8.50000000E-01  8.50000000E-01  8.50000000E-01  8.50000000E-01  8.50000000E-01
  8.50000000E-01  8.50000000E-01  8.50000000E-01  8.50000000E-01  8.50000000E-01
  8.50000000E-01  8.50000000E-01  8.50000000E-01  8.50000000E-01  8.50000000E-01
  8.50000000E-01  8.50000000E-01  8.50000000E-01  8.50000000E-01  8.50000000E-01
  8.50000000E-01  8.50000000E-01  8.50000000E-01  8.50000000E-01  8.50000000E-01
  8.50000000E-01  8.50000000E-01  8.50000000E-01  8.50000000E-01  8.50000000E-01
  8.50000000E-01  8.50000000E-01  8.50000000E-01  8.50000000E-01  8.50000000E-01
  8.50000000E-01  8.50000000E-01  8.50000000E-01  8.50000000E-01  8.50000000E-01
  8.50000000E-01  8.50000000E-01  8.50000000E-01  8.50000000E-01  8.50000000E-01
  8.50000000E-01  8.50000000E-01  8.50000000E-01  8.50000000E-01  8.50000000E-01
  8.50000000E-01  8.50000000E-01  8.50000000E-01  8.50000000E-01  8.50000000E-01
  8.50000000E-01  8.50000000E-01  8.50000000E-01  8.50000000E-01  8.50000000E-01
  8.50000000E-01  8.50000000E-01  8.50000000E-01  8.50000000E-01  8.50000000E-01
  8.50000000E-01  8.50000000E-01  8.50000000E-01  8.50000000E-01  8.50000000E-01
  8.50000000E-01  8.50000000E-01  8.50000000E-01  8.50000000E-01  8.50000000E-01
  8.50000000E-01  8.50000000E-01  8.50000000E-01  8.50000000E-01  8.50000000E-01
  8.50000000E-01  8.50000000E-01  8.50000000E-01  8.50000000E-01  8.50000000E-01
  8.50000000E-01  8.50000000E-01  8.50000000E-01  8.50000000E-01  8.50000000E-01
  8.50000000E-01  8.50000000E-01  8.50000000E-01  8.50000000E-01  8.50000000E-01
  8.50000000E-01  8.50000000E-01  8.50000000E-01  8.50000000E-01  8.50000000E-01
  8.50000000E-01  8.50000000E-01  8.50000000E-01  8.50000000E-01  8.50000000E-01
  8.50000000E-01  8.50000000E-01  8.50000000E-01  8.50000000E-01  8.50000000E-01
  8.50000000E-01  8.50000000E-01  8.50000000E-01  8.50000000E-01  8.50000000E-01
  8.50000000E-01  8.50000000E-01  8.50000000E-01  8.50000000E-01  8.50000000E-01
  8.50000000E-01  8.50000000E-01  8.50000000E-01  8.50000000E-01  8.50000000E-01
  8.50000000E-01  8.50000000E-01  8.50000000E-01  8.50000000E-01  8.50000000E-01
  8.50000000E-01  8.50000000E-01  8.50000000E-01  8.50000000E-01  8.50000000E-01
  8.50000000E-01  8.50000000E-01  8.50000000E-01  8.50000000E-01  8.50000000E-01
  8.50000000E-01  8.50000000E-01  8.50000000E-01  8.50000000E-01  8.50000000E-01
  8.50000000E-01  8.50000000E-01  8.50000000E-01  8.50000000E-01  8.50000000E-01
  8.50000000E-01  8.50000000E-01  8.50000000E-01  8.50000000E-01  8.50000000E-01
  8.50000000E-01  8.50000000E-01  8.50000000E-01  8.50000000E-01  8.50000000E-01
  8.50000000E-01  8.50000000E-01  8.50000000E-01  8.50000000E-01  8.50000000E-01
  8.50000000E-01  8.50000000E-01  8.50000000E-01  8.50000000E-01  8.50000000E-01
  8.50000000E-01  8.50000000E-01  8.50000000E-01  8.50000000E-01  8.50000000E-01
  8.50000000E-01  8.50000000E-01  8.50000000E-01  8.50000000E-01  8.50000000E-01
  8.50000000E-01  8.50000000E-01  8.50000000E-01  8.50000000E-01  8.50000000E-01
  8.50000000E-01  8.50000000E-01  8.50000000E-01  8.50000000E-01  8.50000000E-01
  8.50000000E-01  8.50000000E-01  8.50000000E-01  8.50000000E-01  8.50000000E-01
  8.50000000E-01  8.50000000E-01  8.50000000E-01  8.50000000E-01  8.50000000E-01
  8.50000000E-01  8.50000000E-01  8.50000000E-01  8.50000000E-01  8.50000000E-01
  8.50000000E-01  8.50000000E-01  8.50000000E-01  8.50000000E-01  8.50000000E-01
  8.50000000E-01  8.50000000E-01  8.50000000E-01  8.50000000E-01  8.50000000E-01
  8.50000000E-01  8.50000000E-01  8.50000000E-01  8.50000000E-01  8.50000000E-01
  8.50000000E-01  8.50000000E-01  8.50000000E-01  8.50000000E-01  8.50000000E-01
  8.50000000E-01  8.50000000E-01  8.50000000E-01  8.50000000E-01  8.50000000E-01
  8.50000000E-01  8.50000000E-01  8.50000000E-01  8.50000000E-01  8.50000000E-01
  8.50000000E-01  8.50000000E-01  8.50000000E-01  8.50000000E-01  8.50000000E-01
  8.50000000E-01  8.50000000E-01  8.50000000E-01  8.50000000E-01  8.50000000E-01
  8.50000000E-01  8.50000000E-01  8.50000000E-01  8.50000000E-01  8.50000000E-01
  8.50000000E-01  8.50000000E-01  8.50000000E-01  8.50000000E-01  8.50000000E-01
  8.50000000E-01  8.50000000E-01  8.50000000E-01  8.50000000E-01  8.50000000E-01
  8.50000000E-01  8.50000000E-01  8.50000000E-01  8.50000000E-01  8.50000000E-01
  8.50000000E-01  8.50000000E-01  8.50000000E-01  8.50000000E-01  8.50000000E-01
  8.50000000E-01  8.50000000E-01  8.50000000E-01  8.50000000E-01  8.50000000E-01
  8.50000000E-01  8.50000000E-01  8.50000000E-01  8.50000000E-01  8.50000000E-01
  8.50000000E-01  8.50000000E-01  8.50000000E-01  8.50000000E-01  8.50000000E-01
  8.50000000E-01  8.50000000E-01  8.50000000E-01  8.50000000E-01  8.50000000E-01
  8.50000000E-01  8.50000000E-01  8.50000000E-01  8.50000000E-01  8.50000000E-01
  8.50000000E-01  8.50000000E-01  8.50000000E-01  8.50000000E-01  8.50000000E-01
  8.50000000E-01  8.50000000E-01  8.50000000E-01  8.50000000E-01  8.50000000E-01
  8.50000000E-01  8.50000000E-01  8.50000000E-01  8.50000000E-01  8.50000000E-01
  8.50000000E-01  8.50000000E-01  8.50000000E-01  8.50000000E-01  8.50000000E-01
  8.50000000E-01  8.50000000E-01  8.50000000E-01  8.50000000E-01  8.50000000E-01
  8.50000000E-01  8.50000000E-01  8.50000000E-01  8.50000000E-01  8.50000000E-01
  8.50000000E-01  8.50000000E-01  8.50000000E-01  8.50000000E-01  8.50000000E-01
  8.50000000E-01  8.50000000E-01  8.50000000E-01  8.50000000E-01  8.50000000E-01
  8.50000000E-01  8.50000000E-01  8.50000000E-01  8.50000000E-01  8.50000000E-01
  8.50000000E-01  8.50000000E-01  8.50000000E-01  8.50000000E-01  8.50000000E-01
  8.50000000E-01  8.50000000E-01  8.50000000E-01  8.50000000E-01  8.50000000E-01
  8.50000000E-01  8.50000000E-01  8.50000000E-01  8.50000000E-01  8.50000000E-01
  8.50000000E-01  8.50000000E-01  8.50000000E-01  8.50000000E-01  8.50000000E-01
  8.50000000E-01  8.50000000E-01  8.50000000E-01  8.50000000E-01  8.50000000E-01
  8.50000000E-01  8.50000000E-01  8.50000000E-01  8.50000000E-01  8.50000000E-01
  8.50000000E-01  8.50000000E-01  8.50000000E-01  8.50000000E-01  8.50000000E-01
  8.50000000E-01  8.50000000E-01  8.50000000E-01  8.50000000E-01  8.50000000E-01
  8.50000000E-01  8.50000000E-01  8.50000000E-01  8.50000000E-01  8.50000000E-01
  8.50000000E-01  8.50000000E-01  8.50000000E-01  8.50000000E-01  8.50000000E-01
  8.50000000E-01  8.50000000E-01  8.50000000E-01  8.50000000E-01  8.50000000E-01
  8.50000000E-01  8.50000000E-01  8.50000000E-01  8.50000000E-01  8.50000000E-01
  8.50000000E-01  8.50000000E-01  8.50000000E-01  8.50000000E-01  8.50000000E-01
  8.50000000E-01  8.50000000E-01  8.50000000E-01  8.50000000E-01  8.50000000E-01
  8.50000000E-01  8.50000000E-01  8.50000000E-01  8.50000000E-01  8.50000000E-01
  8.50000000E-01  8.50000000E-01  8.50000000E-01  8.50000000E-01  8.50000000E-01
  8.50000000E-01  8.50000000E-01  8.50000000E-01  8.50000000E-01  8.50000000E-01
  8.50000000E-01  8.50000000E-01  8.50000000E-01  8.50000000E-01  8.50000000E-01
  8.50000000E-01  8.50000000E-01  8.50000000E-01  8.50000000E-01  8.50000000E-01
  8.50000000E-01  8.50000000E-01  8.50000000E-01  8.50000000E-01  8.50000000E-01
  8.50000000E-01  8.50000000E-01  8.50000000E-01  8.50000000E-01  8.50000000E-01
  8.50000000E-01  8.50000000E-01  8.50000000E-01  8.50000000E-01  8.50000000E-01
  8.50000000E-01  8.50000000E-01  8.50000000E-01  8.50000000E-01  8.50000000E-01
  8.50000000E-01  8.50000000E-01  8.50000000E-01  8.50000000E-01  8.50000000E-01
  8.50000000E-01  8.50000000E-01  8.50000000E-01  8.50000000E-01  8.50000000E-01
  8.50000000E-01  8.50000000E-01  8.50000000E-01  8.50000000E-01  8.50000000E-01
  8.50000000E-01  8.50000000E-01  8.50000000E-01  8.50000000E-01  8.50000000E-01
  8.50000000E-01  8.50000000E-01  8.50000000E-01  8.50000000E-01  8.50000000E-01
  8.50000000E-01  8.50000000E-01  8.50000000E-01  8.50000000E-01  8.50000000E-01
  8.50000000E-01  8.50000000E-01  8.50000000E-01  8.50000000E-01  8.50000000E-01
  8.50000000E-01  8.50000000E-01  8.50000000E-01  8.50000000E-01  8.50000000E-01
  8.50000000E-01  8.50000000E-01  8.50000000E-01  8.50000000E-01  8.50000000E-01
  8.50000000E-01  8.50000000E-01  8.50000000E-01  8.50000000E-01  8.50000000E-01
  8.50000000E-01  8.50000000E-01  8.50000000E-01  8.50000000E-01  8.50000000E-01
  8.50000000E-01  8.50000000E-01  8.50000000E-01  8.50000000E-01  8.50000000E-01
  8.50000000E-01  8.50000000E-01  8.50000000E-01  8.50000000E-01  8.50000000E-01
  8.50000000E-01  8.50000000E-01  8.50000000E-01  8.50000000E-01  8.50000000E-01
  8.50000000E-01  8.50000000E-01  8.50000000E-01  8.50000000E-01  8.50000000E-01
  8.50000000E-01  8.50000000E-01  8.50000000E-01  8.50000000E-01  8.50000000E-01
  8.50000000E-01  8.50000000E-01  8.50000000E-01  8.50000000E-01  8.50000000E-01
  8.50000000E-01  8.50000000E-01  8.50000000E-01  8.50000000E-01  8.50000000E-01
  8.50000000E-01  8.50000000E-01  8.50000000E-01  8.50000000E-01  8.50000000E-01
  8.50000000E-01  8.50000000E-01  8.50000000E-01  8.50000000E-01  8.50000000E-01
  8.50000000E-01  8.50000000E-01  8.50000000E-01  8.50000000E-01  8.50000000E-01
  8.50000000E-01  8.50000000E-01  8.50000000E-01  8.50000000E-01  8.50000000E-01
  8.50000000E-01  8.50000000E-01  8.50000000E-01  8.50000000E-01  8.50000000E-01
  8.50000000E-01  8.50000000E-01  8.50000000E-01  8.50000000E-01  8.50000000E-01
  8.50000000E-01  8.50000000E-01  8.50000000E-01  8.50000000E-01  8.50000000E-01
  8.50000000E-01  8.50000000E-01  8.50000000E-01  8.50000000E-01  8.50000000E-01
  8.50000000E-01  8.50000000E-01  8.50000000E-01  8.50000000E-01  8.50000000E-01
  8.50000000E-01  8.50000000E-01  8.50000000E-01  8.50000000E-01  8.50000000E-01
  8.50000000E-01  8.50000000E-01  8.50000000E-01  8.50000000E-01  8.50000000E-01
  8.50000000E-01  8.50000000E-01  8.50000000E-01  8.50000000E-01  8.50000000E-01
  8.50000000E-01  8.50000000E-01  8.50000000E-01  8.50000000E-01  8.50000000E-01
  8.50000000E-01  8.50000000E-01  8.50000000E-01  8.50000000E-01  8.50000000E-01
  8.50000000E-01  8.50000000E-01  8.50000000E-01  8.50000000E-01  8.50000000E-01
  8.50000000E-01  8.50000000E-01  8.50000000E-01  8.50000000E-01  8.50000000E-01
  8.50000000E-01  8.50000000E-01  8.50000000E-01  8.50000000E-01  8.50000000E-01
  8.50000000E-01  8.50000000E-01  8.50000000E-01  8.50000000E-01  8.50000000E-01
  8.50000000E-01  8.50000000E-01  8.50000000E-01  8.50000000E-01  8.50000000E-01
  8.50000000E-01  8.50000000E-01  8.50000000E-01  8.50000000E-01  8.50000000E-01
  8.50000000E-01  8.50000000E-01  8.50000000E-01  8.50000000E-01  8.50000000E-01
  8.50000000E-01  8.50000000E-01  8.50000000E-01  8.50000000E-01  8.50000000E-01
  8.50000000E-01  8.50000000E-01  8.50000000E-01  8.50000000E-01  8.50000000E-01
  8.50000000E-01  8.50000000E-01  8.50000000E-01  8.50000000E-01  8.50000000E-01
  8.50000000E-01  8.50000000E-01  8.50000000E-01  8.50000000E-01  8.50000000E-01
  8.50000000E-01  8.50000000E-01  8.50000000E-01  8.50000000E-01  8.50000000E-01
  8.50000000E-01  8.50000000E-01  8.50000000E-01  8.50000000E-01  8.50000000E-01
  8.50000000E-01  8.50000000E-01  8.50000000E-01  8.50000000E-01  8.50000000E-01
  8.50000000E-01  8.50000000E-01  8.50000000E-01  8.50000000E-01  8.50000000E-01
  8.50000000E-01  8.50000000E-01  8.50000000E-01  8.50000000E-01  8.50000000E-01
  8.50000000E-01  8.50000000E-01  8.50000000E-01  8.50000000E-01  8.50000000E-01
  8.50000000E-01  8.50000000E-01  8.50000000E-01  8.50000000E-01  8.50000000E-01
  8.50000000E-01  8.50000000E-01  8.50000000E-01  8.50000000E-01  8.50000000E-01
  8.50000000E-01  8.50000000E-01  8.50000000E-01  8.50000000E-01  8.50000000E-01
  8.50000000E-01  8.50000000E-01  8.50000000E-01  8.50000000E-01  8.50000000E-01
  8.50000000E-01  8.50000000E-01  8.50000000E-01  8.50000000E-01  8.50000000E-01
  8.50000000E-01  8.50000000E-01  8.50000000E-01  8.50000000E-01  8.50000000E-01
  8.50000000E-01  8.50000000E-01  8.50000000E-01  8.50000000E-01  8.50000000E-01
  8.50000000E-01  8.50000000E-01  8.50000000E-01  8.50000000E-01  8.50000000E-01
  8.50000000E-01  8.50000000E-01  8.50000000E-01  8.50000000E-01  8.50000000E-01
  8.50000000E-01  8.50000000E-01  8.50000000E-01  8.50000000E-01  8.50000000E-01
  8.50000000E-01  8.50000000E-01  8.50000000E-01  8.50000000E-01  8.50000000E-01
  8.50000000E-01  8.50000000E-01  8.50000000E-01  8.50000000E-01  8.50000000E-01
  8.50000000E-01  8.50000000E-01  8.50000000E-01  8.50000000E-01  8.50000000E-01
  8.50000000E-01  8.50000000E-01  8.50000000E-01  8.50000000E-01  8.50000000E-01
  8.50000000E-01  8.50000000E-01  8.50000000E-01  8.50000000E-01  8.50000000E-01
  8.50000000E-01  8.50000000E-01  8.50000000E-01  8.50000000E-01  8.50000000E-01
  8.50000000E-01  8.50000000E-01  8.50000000E-01  8.50000000E-01  8.50000000E-01
  8.50000000E-01  8.50000000E-01  8.50000000E-01  8.50000000E-01  8.50000000E-01
  8.50000000E-01  8.50000000E-01  8.50000000E-01  8.50000000E-01  8.50000000E-01
  8.50000000E-01  8.50000000E-01  8.50000000E-01  8.50000000E-01  8.50000000E-01
  8.50000000E-01  8.50000000E-01  8.50000000E-01  8.50000000E-01  8.50000000E-01
  8.50000000E-01  8.50000000E-01  8.50000000E-01  8.50000000E-01  8.50000000E-01
  8.50000000E-01  8.50000000E-01  8.50000000E-01  8.50000000E-01  8.50000000E-01
  8.50000000E-01  8.50000000E-01  8.50000000E-01  8.50000000E-01  8.50000000E-01
  8.50000000E-01  8.50000000E-01  8.50000000E-01  8.50000000E-01  8.50000000E-01
  8.50000000E-01  8.50000000E-01  8.50000000E-01  8.50000000E-01  8.50000000E-01
  8.50000000E-01  8.50000000E-01  8.50000000E-01  8.50000000E-01  8.50000000E-01
  8.50000000E-01  8.50000000E-01  8.50000000E-01  8.50000000E-01  8.50000000E-01
  8.50000000E-01  8.50000000E-01  8.50000000E-01  8.50000000E-01  8.50000000E-01
  8.50000000E-01  8.50000000E-01  8.50000000E-01  8.50000000E-01  8.50000000E-01
  8.50000000E-01  8.50000000E-01  8.50000000E-01  8.50000000E-01  8.50000000E-01
  8.50000000E-01  8.50000000E-01  8.50000000E-01  8.50000000E-01  8.50000000E-01
  8.50000000E-01  8.50000000E-01  8.50000000E-01  8.50000000E-01  8.50000000E-01
  8.50000000E-01  8.50000000E-01  8.50000000E-01  8.50000000E-01  8.50000000E-01
  8.50000000E-01  8.50000000E-01  8.50000000E-01  8.50000000E-01  8.50000000E-01
  8.50000000E-01  8.50000000E-01  8.50000000E-01  8.50000000E-01  8.50000000E-01
  8.50000000E-01  8.50000000E-01  8.50000000E-01  8.50000000E-01  8.50000000E-01
  8.50000000E-01  8.50000000E-01  8.50000000E-01  8.50000000E-01  8.50000000E-01
  8.50000000E-01  8.50000000E-01  8.50000000E-01  8.50000000E-01  8.50000000E-01
  8.50000000E-01  8.50000000E-01  8.50000000E-01  8.50000000E-01  8.50000000E-01
  8.50000000E-01  8.50000000E-01  8.50000000E-01  8.50000000E-01  8.50000000E-01
  8.50000000E-01  8.50000000E-01  8.50000000E-01  8.50000000E-01  8.50000000E-01
  8.50000000E-01  8.50000000E-01  8.50000000E-01  8.50000000E-01  8.50000000E-01
  8.50000000E-01  8.50000000E-01  8.50000000E-01  8.50000000E-01  8.50000000E-01
  8.50000000E-01  8.50000000E-01  8.50000000E-01  8.50000000E-01  8.50000000E-01
  8.50000000E-01  8.50000000E-01  8.50000000E-01  8.50000000E-01  8.50000000E-01
  8.50000000E-01  8.50000000E-01  8.50000000E-01  8.50000000E-01  8.50000000E-01
  8.50000000E-01  8.50000000E-01  8.50000000E-01  8.50000000E-01  8.50000000E-01
  8.50000000E-01  8.50000000E-01  8.50000000E-01  8.50000000E-01  8.50000000E-01
  8.50000000E-01  8.50000000E-01  8.50000000E-01  8.50000000E-01  8.50000000E-01
  8.50000000E-01  8.50000000E-01  8.50000000E-01  8.50000000E-01  8.50000000E-01
  8.50000000E-01  8.50000000E-01  8.50000000E-01  8.50000000E-01  8.50000000E-01
  8.50000000E-01  8.50000000E-01  8.50000000E-01  8.50000000E-01  8.50000000E-01
  8.50000000E-01  8.50000000E-01  8.50000000E-01  8.50000000E-01  8.50000000E-01
  8.50000000E-01  8.50000000E-01  8.50000000E-01  8.50000000E-01  8.50000000E-01
  8.50000000E-01  8.50000000E-01  8.50000000E-01  8.50000000E-01  8.50000000E-01
  8.50000000E-01  8.50000000E-01  8.50000000E-01  8.50000000E-01  8.50000000E-01
  8.50000000E-01  8.50000000E-01  8.50000000E-01  8.50000000E-01  8.50000000E-01
  8.50000000E-01  8.50000000E-01  8.50000000E-01  8.50000000E-01  8.50000000E-01
  8.50000000E-01  8.50000000E-01  8.50000000E-01  8.50000000E-01  8.50000000E-01
  8.50000000E-01  8.50000000E-01  8.50000000E-01  8.50000000E-01  8.50000000E-01
  8.50000000E-01  8.50000000E-01  8.50000000E-01  8.50000000E-01  8.50000000E-01
  8.50000000E-01  8.50000000E-01  8.50000000E-01  8.50000000E-01  8.50000000E-01
  8.50000000E-01  8.50000000E-01  8.50000000E-01  8.50000000E-01  8.50000000E-01
  8.50000000E-01  8.50000000E-01  8.50000000E-01  8.50000000E-01  8.50000000E-01
  8.50000000E-01  8.50000000E-01  8.50000000E-01  8.50000000E-01  8.50000000E-01
  8.50000000E-01  8.50000000E-01  8.50000000E-01  8.50000000E-01  8.50000000E-01
  8.50000000E-01  8.50000000E-01  8.50000000E-01  8.50000000E-01  8.50000000E-01
  8.50000000E-01  8.50000000E-01  8.50000000E-01  8.50000000E-01  8.50000000E-01
  8.50000000E-01  8.50000000E-01  8.50000000E-01  8.50000000E-01  8.50000000E-01
  8.50000000E-01  8.50000000E-01  8.50000000E-01  8.50000000E-01  8.50000000E-01
  8.50000000E-01  8.50000000E-01  8.50000000E-01  8.50000000E-01  8.50000000E-01
  8.50000000E-01  8.50000000E-01  8.50000000E-01  8.50000000E-01  8.50000000E-01
  8.50000000E-01  8.50000000E-01  8.50000000E-01  8.50000000E-01  8.50000000E-01
  8.50000000E-01  8.50000000E-01  8.50000000E-01  8.50000000E-01  8.50000000E-01
  8.50000000E-01  8.50000000E-01  8.50000000E-01  8.50000000E-01  8.50000000E-01
  8.50000000E-01  8.50000000E-01  8.50000000E-01  8.50000000E-01  8.50000000E-01
  8.50000000E-01  8.50000000E-01  8.50000000E-01  8.50000000E-01  8.50000000E-01
  8.50000000E-01  8.50000000E-01  8.50000000E-01  8.50000000E-01  8.50000000E-01
  8.50000000E-01  8.50000000E-01  8.50000000E-01  8.50000000E-01  8.50000000E-01
  8.50000000E-01  8.50000000E-01  8.50000000E-01  8.50000000E-01  8.50000000E-01
  8.50000000E-01  8.50000000E-01  8.50000000E-01  8.50000000E-01  8.50000000E-01
  8.50000000E-01  8.50000000E-01  8.50000000E-01  8.50000000E-01  8.50000000E-01
  8.50000000E-01  8.50000000E-01  8.50000000E-01  8.50000000E-01  8.50000000E-01
  8.50000000E-01  8.50000000E-01  8.50000000E-01  8.50000000E-01  8.50000000E-01
  8.50000000E-01  8.50000000E-01  8.50000000E-01  8.50000000E-01  8.50000000E-01
  8.50000000E-01  8.50000000E-01  8.50000000E-01  8.50000000E-01  8.50000000E-01
  8.50000000E-01  8.50000000E-01  8.50000000E-01  8.50000000E-01  8.50000000E-01
  8.50000000E-01  8.50000000E-01  8.50000000E-01  8.50000000E-01  8.50000000E-01
  8.50000000E-01  8.50000000E-01  8.50000000E-01  8.50000000E-01  8.50000000E-01
  8.50000000E-01  8.50000000E-01  8.50000000E-01  8.50000000E-01  8.50000000E-01
  8.50000000E-01  8.50000000E-01  8.50000000E-01  8.50000000E-01  8.50000000E-01
  8.50000000E-01  8.50000000E-01  8.50000000E-01  8.50000000E-01  8.50000000E-01
  8.50000000E-01  8.50000000E-01  8.50000000E-01  8.50000000E-01  8.50000000E-01
  8.50000000E-01  8.50000000E-01  8.50000000E-01  8.50000000E-01  8.50000000E-01
  8.50000000E-01  8.50000000E-01  8.50000000E-01  8.50000000E-01  8.50000000E-01
  8.50000000E-01  8.50000000E-01  8.50000000E-01  8.50000000E-01  8.50000000E-01
  8.50000000E-01  8.50000000E-01  8.50000000E-01  8.50000000E-01  8.50000000E-01
  8.50000000E-01  8.50000000E-01  8.50000000E-01  8.50000000E-01  8.50000000E-01
  8.50000000E-01  8.50000000E-01  8.50000000E-01  8.50000000E-01  8.50000000E-01
  8.50000000E-01  8.50000000E-01  8.50000000E-01  8.50000000E-01  8.50000000E-01
  8.50000000E-01  8.50000000E-01  8.50000000E-01  8.50000000E-01  8.50000000E-01
  8.50000000E-01  8.50000000E-01  8.50000000E-01  8.50000000E-01  8.50000000E-01
  8.50000000E-01  8.50000000E-01  8.50000000E-01  8.50000000E-01  8.50000000E-01
  8.50000000E-01  8.50000000E-01  8.50000000E-01  8.50000000E-01  8.50000000E-01
  8.50000000E-01  8.50000000E-01  8.50000000E-01  8.50000000E-01  8.50000000E-01
  8.50000000E-01  8.50000000E-01  8.50000000E-01  8.50000000E-01  8.50000000E-01
  8.50000000E-01  8.50000000E-01  8.50000000E-01  8.50000000E-01  8.50000000E-01
  8.50000000E-01  8.50000000E-01  8.50000000E-01  8.50000000E-01  8.50000000E-01
  8.50000000E-01  8.50000000E-01  8.50000000E-01  8.50000000E-01  8.50000000E-01
  8.50000000E-01  8.50000000E-01  8.50000000E-01  8.50000000E-01  8.50000000E-01
  8.50000000E-01  8.50000000E-01  8.50000000E-01  8.50000000E-01  8.50000000E-01
  8.50000000E-01  8.50000000E-01  8.50000000E-01  8.50000000E-01  8.50000000E-01
  8.50000000E-01  8.50000000E-01  8.50000000E-01  8.50000000E-01  8.50000000E-01
  8.50000000E-01  8.50000000E-01  8.50000000E-01  8.50000000E-01  8.50000000E-01
  8.50000000E-01  8.50000000E-01  8.50000000E-01  8.50000000E-01  8.50000000E-01
  8.50000000E-01  8.50000000E-01  8.50000000E-01  8.50000000E-01  8.50000000E-01
  8.50000000E-01  8.50000000E-01  8.50000000E-01  8.50000000E-01  8.50000000E-01
  8.50000000E-01  8.50000000E-01  8.50000000E-01  8.50000000E-01  8.50000000E-01
  8.50000000E-01  8.50000000E-01  8.50000000E-01  8.50000000E-01  8.50000000E-01
  8.50000000E-01  8.50000000E-01  8.50000000E-01  8.50000000E-01  8.50000000E-01
  8.50000000E-01  8.50000000E-01  8.50000000E-01  8.50000000E-01  8.50000000E-01
  8.50000000E-01  8.50000000E-01  8.50000000E-01  8.50000000E-01  8.50000000E-01
  8.50000000E-01  8.50000000E-01  8.50000000E-01  8.50000000E-01  8.50000000E-01
  8.50000000E-01  8.50000000E-01  8.50000000E-01  8.50000000E-01  8.50000000E-01
  8.50000000E-01  8.50000000E-01  8.50000000E-01  8.50000000E-01  8.50000000E-01
  8.50000000E-01  8.50000000E-01  8.50000000E-01  8.50000000E-01  8.50000000E-01
  8.50000000E-01  8.50000000E-01  8.50000000E-01  8.50000000E-01  8.50000000E-01
  8.50000000E-01  8.50000000E-01  8.50000000E-01  8.50000000E-01  8.50000000E-01
  8.50000000E-01  8.50000000E-01  8.50000000E-01  8.50000000E-01  8.50000000E-01
  8.50000000E-01  8.50000000E-01  8.50000000E-01  8.50000000E-01  8.50000000E-01
  8.50000000E-01  8.50000000E-01  8.50000000E-01  8.50000000E-01  8.50000000E-01
  8.50000000E-01  8.50000000E-01  8.50000000E-01  8.50000000E-01  8.50000000E-01
  8.50000000E-01  8.50000000E-01  8.50000000E-01  8.50000000E-01  8.50000000E-01
  8.50000000E-01  8.50000000E-01  8.50000000E-01  8.50000000E-01  8.50000000E-01
  8.50000000E-01  8.50000000E-01  8.50000000E-01  8.50000000E-01  8.50000000E-01
  8.50000000E-01  8.50000000E-01  8.50000000E-01  8.50000000E-01  8.50000000E-01
  8.50000000E-01  8.50000000E-01  8.50000000E-01  8.50000000E-01  8.50000000E-01
  8.50000000E-01  8.50000000E-01  8.50000000E-01  8.50000000E-01  8.50000000E-01
  8.50000000E-01  8.50000000E-01  8.50000000E-01  8.50000000E-01  8.50000000E-01
  8.50000000E-01  8.50000000E-01  8.50000000E-01  8.50000000E-01  8.50000000E-01
  8.50000000E-01  8.50000000E-01  8.50000000E-01  8.50000000E-01  8.50000000E-01
  8.50000000E-01  8.50000000E-01  8.50000000E-01  8.50000000E-01  8.50000000E-01
  8.50000000E-01  8.50000000E-01  8.50000000E-01  8.50000000E-01  8.50000000E-01
  8.50000000E-01  8.50000000E-01  8.50000000E-01  8.50000000E-01  8.50000000E-01
  8.50000000E-01  8.50000000E-01  8.50000000E-01  8.50000000E-01  8.50000000E-01
  8.50000000E-01  8.50000000E-01  8.50000000E-01  8.50000000E-01  8.50000000E-01
  8.50000000E-01  8.50000000E-01  8.50000000E-01  8.50000000E-01  8.50000000E-01
  8.50000000E-01  8.50000000E-01  8.50000000E-01  8.50000000E-01  8.50000000E-01
  8.50000000E-01  8.50000000E-01  8.50000000E-01  8.50000000E-01  8.50000000E-01
  8.50000000E-01  8.50000000E-01  8.50000000E-01  8.50000000E-01  8.50000000E-01
  8.50000000E-01  8.50000000E-01  8.50000000E-01  8.50000000E-01  8.50000000E-01
  8.50000000E-01  8.50000000E-01  8.50000000E-01  8.50000000E-01  8.50000000E-01
  8.50000000E-01  8.50000000E-01  8.50000000E-01  8.50000000E-01  8.50000000E-01
  8.50000000E-01  8.50000000E-01  8.50000000E-01  8.50000000E-01  8.50000000E-01
  8.50000000E-01  8.50000000E-01  8.50000000E-01  8.50000000E-01  8.50000000E-01
  8.50000000E-01  8.50000000E-01  8.50000000E-01  8.50000000E-01  8.50000000E-01
  8.50000000E-01  8.50000000E-01  8.50000000E-01  8.50000000E-01  8.50000000E-01
  8.50000000E-01  8.50000000E-01  8.50000000E-01  8.50000000E-01  8.50000000E-01
  8.50000000E-01  8.50000000E-01  8.50000000E-01  8.50000000E-01  8.50000000E-01
  8.50000000E-01  8.50000000E-01  8.50000000E-01  8.50000000E-01  8.50000000E-01
  8.50000000E-01  8.50000000E-01  8.50000000E-01  8.50000000E-01  8.50000000E-01
  8.50000000E-01  8.50000000E-01  8.50000000E-01  8.50000000E-01  8.50000000E-01
  8.50000000E-01  8.50000000E-01  8.50000000E-01  8.50000000E-01  8.50000000E-01
  8.50000000E-01  8.50000000E-01  8.50000000E-01  8.50000000E-01  8.50000000E-01
  8.50000000E-01  8.50000000E-01  8.50000000E-01  8.50000000E-01  8.50000000E-01
  8.50000000E-01  8.50000000E-01  8.50000000E-01  8.50000000E-01  8.50000000E-01
  8.50000000E-01  8.50000000E-01  8.50000000E-01  8.50000000E-01  8.50000000E-01
  8.50000000E-01  8.50000000E-01  8.50000000E-01  8.50000000E-01  8.50000000E-01
  8.50000000E-01  8.50000000E-01  8.50000000E-01  8.50000000E-01  8.50000000E-01
  8.50000000E-01  8.50000000E-01  8.50000000E-01  8.50000000E-01  8.50000000E-01
  8.50000000E-01  8.50000000E-01  8.50000000E-01  8.50000000E-01  8.50000000E-01
  8.50000000E-01  8.50000000E-01  8.50000000E-01  8.50000000E-01  8.50000000E-01
  8.50000000E-01  8.50000000E-01  8.50000000E-01  8.50000000E-01  8.50000000E-01
  8.50000000E-01  8.50000000E-01  8.50000000E-01  8.50000000E-01  8.50000000E-01
  8.50000000E-01  8.50000000E-01  8.50000000E-01  8.50000000E-01  8.50000000E-01
  8.50000000E-01  8.50000000E-01  8.50000000E-01  8.50000000E-01  8.50000000E-01
  8.50000000E-01  8.50000000E-01  8.50000000E-01  8.50000000E-01  8.50000000E-01
  8.50000000E-01  8.50000000E-01  8.50000000E-01  8.50000000E-01  8.50000000E-01
  8.50000000E-01  8.50000000E-01  8.50000000E-01  8.50000000E-01  8.50000000E-01
  8.50000000E-01  8.50000000E-01  8.50000000E-01  8.50000000E-01  8.50000000E-01
  8.50000000E-01  8.50000000E-01  8.50000000E-01  8.50000000E-01  8.50000000E-01
  8.50000000E-01  8.50000000E-01  8.50000000E-01  8.50000000E-01  8.50000000E-01
  8.50000000E-01  8.50000000E-01  8.50000000E-01  8.50000000E-01  8.50000000E-01
  8.50000000E-01  8.50000000E-01  8.50000000E-01  8.50000000E-01  8.50000000E-01
  8.50000000E-01  8.50000000E-01  8.50000000E-01  8.50000000E-01  8.50000000E-01
  8.50000000E-01  8.50000000E-01  8.50000000E-01  8.50000000E-01  8.50000000E-01
  8.50000000E-01  8.50000000E-01  8.50000000E-01  8.50000000E-01  8.50000000E-01
  8.50000000E-01  8.50000000E-01  8.50000000E-01  8.50000000E-01  8.50000000E-01
  8.50000000E-01  8.50000000E-01  8.50000000E-01  8.50000000E-01  8.50000000E-01
  8.50000000E-01  8.50000000E-01  8.50000000E-01  8.50000000E-01  8.50000000E-01
  8.50000000E-01  8.50000000E-01  8.50000000E-01  8.50000000E-01  8.50000000E-01
  8.50000000E-01  8.50000000E-01  8.50000000E-01  8.50000000E-01  8.50000000E-01
  8.50000000E-01  8.50000000E-01  8.50000000E-01  8.50000000E-01  8.50000000E-01
  8.50000000E-01  8.50000000E-01  8.50000000E-01  8.50000000E-01  8.50000000E-01
  8.50000000E-01  8.50000000E-01  8.50000000E-01  8.50000000E-01  8.50000000E-01
  8.50000000E-01  8.50000000E-01  8.50000000E-01  8.50000000E-01  8.50000000E-01
  8.50000000E-01  8.50000000E-01  8.50000000E-01  8.50000000E-01  8.50000000E-01
  8.50000000E-01  8.50000000E-01  8.50000000E-01  8.50000000E-01  8.50000000E-01
  8.50000000E-01  8.50000000E-01  8.50000000E-01  8.50000000E-01  8.50000000E-01
  8.50000000E-01  8.50000000E-01  8.50000000E-01  8.50000000E-01  8.50000000E-01
  8.50000000E-01  8.50000000E-01  8.50000000E-01  8.50000000E-01  8.50000000E-01
  8.50000000E-01  8.50000000E-01  8.50000000E-01  8.50000000E-01  8.50000000E-01
  8.50000000E-01  8.50000000E-01  8.50000000E-01  8.50000000E-01  8.50000000E-01
  8.50000000E-01  8.50000000E-01  8.50000000E-01  8.50000000E-01  8.50000000E-01
  8.50000000E-01  8.50000000E-01  8.50000000E-01  8.50000000E-01  8.50000000E-01
  8.50000000E-01  8.50000000E-01  8.50000000E-01  8.50000000E-01  8.50000000E-01
  8.50000000E-01  8.50000000E-01  8.50000000E-01  8.50000000E-01  8.50000000E-01
  8.50000000E-01  8.50000000E-01  8.50000000E-01  8.50000000E-01  8.50000000E-01
  8.50000000E-01  8.50000000E-01  8.50000000E-01  8.50000000E-01  8.50000000E-01
  8.50000000E-01  8.50000000E-01  8.50000000E-01  8.50000000E-01  8.50000000E-01
  8.50000000E-01  8.50000000E-01  8.50000000E-01  8.50000000E-01  8.50000000E-01
  8.50000000E-01  8.50000000E-01  8.50000000E-01  8.50000000E-01  8.50000000E-01
  8.50000000E-01  8.50000000E-01  8.50000000E-01  8.50000000E-01  8.50000000E-01
  8.50000000E-01  8.50000000E-01  8.50000000E-01  8.50000000E-01  8.50000000E-01
  8.50000000E-01  8.50000000E-01  8.50000000E-01  8.50000000E-01  8.50000000E-01
  8.50000000E-01  8.50000000E-01  8.50000000E-01  8.50000000E-01  8.50000000E-01
  8.50000000E-01  8.50000000E-01  8.50000000E-01  8.50000000E-01  8.50000000E-01
  8.50000000E-01  8.50000000E-01  8.50000000E-01  8.50000000E-01  8.50000000E-01
  8.50000000E-01  8.50000000E-01  8.50000000E-01  8.50000000E-01  8.50000000E-01
  8.50000000E-01  8.50000000E-01  8.50000000E-01  8.50000000E-01  8.50000000E-01
  8.50000000E-01  8.50000000E-01  8.50000000E-01  8.50000000E-01  8.50000000E-01
  8.50000000E-01  8.50000000E-01  8.50000000E-01  8.50000000E-01  8.50000000E-01
  8.50000000E-01  8.50000000E-01  8.50000000E-01  8.50000000E-01  8.50000000E-01
  8.50000000E-01  8.50000000E-01  8.50000000E-01  8.50000000E-01  8.50000000E-01
  8.50000000E-01  8.50000000E-01  8.50000000E-01  8.50000000E-01  8.50000000E-01
  8.50000000E-01  8.50000000E-01  8.50000000E-01  8.50000000E-01  8.50000000E-01
  8.50000000E-01  8.50000000E-01  8.50000000E-01  8.50000000E-01  8.50000000E-01
  8.50000000E-01  8.50000000E-01  8.50000000E-01  8.50000000E-01  8.50000000E-01
  8.50000000E-01  8.50000000E-01  8.50000000E-01  8.50000000E-01  8.50000000E-01
  8.50000000E-01  8.50000000E-01  8.50000000E-01  8.50000000E-01  8.50000000E-01
  8.50000000E-01  8.50000000E-01  8.50000000E-01  8.50000000E-01  8.50000000E-01
  8.50000000E-01  8.50000000E-01  8.50000000E-01  8.50000000E-01  8.50000000E-01
  8.50000000E-01  8.50000000E-01  8.50000000E-01  8.50000000E-01  8.50000000E-01
  8.50000000E-01  8.50000000E-01  8.50000000E-01  8.50000000E-01  8.50000000E-01
  8.50000000E-01  8.50000000E-01  8.50000000E-01  8.50000000E-01  8.50000000E-01
  8.50000000E-01  8.50000000E-01  8.50000000E-01  8.50000000E-01  8.50000000E-01
  8.50000000E-01  8.50000000E-01  8.50000000E-01  8.50000000E-01  8.50000000E-01
  8.50000000E-01  8.50000000E-01  8.50000000E-01  8.50000000E-01  8.50000000E-01
  8.50000000E-01  8.50000000E-01  8.50000000E-01  8.50000000E-01  8.50000000E-01
  8.50000000E-01  8.50000000E-01  8.50000000E-01  8.50000000E-01  8.50000000E-01
  8.50000000E-01  8.50000000E-01  8.50000000E-01  8.50000000E-01  8.50000000E-01
  8.50000000E-01  8.50000000E-01  8.50000000E-01  8.50000000E-01  8.50000000E-01
  8.50000000E-01  8.50000000E-01  8.50000000E-01  8.50000000E-01  8.50000000E-01
  8.50000000E-01  8.50000000E-01  8.50000000E-01  8.50000000E-01  8.50000000E-01
  8.50000000E-01  8.50000000E-01  8.50000000E-01  8.50000000E-01  8.50000000E-01
  8.50000000E-01  8.50000000E-01  8.50000000E-01  8.50000000E-01  8.50000000E-01
  8.50000000E-01  8.50000000E-01  8.50000000E-01  8.50000000E-01  8.50000000E-01
  8.50000000E-01  8.50000000E-01  8.50000000E-01  8.50000000E-01  8.50000000E-01
  8.50000000E-01  8.50000000E-01  8.50000000E-01  8.50000000E-01  8.50000000E-01
  8.50000000E-01  8.50000000E-01  8.50000000E-01  8.50000000E-01  8.50000000E-01
  8.50000000E-01  8.50000000E-01  8.50000000E-01  8.50000000E-01  8.50000000E-01
  8.50000000E-01  8.50000000E-01  8.50000000E-01  8.50000000E-01  8.50000000E-01
  8.50000000E-01  8.50000000E-01  8.50000000E-01  8.50000000E-01  8.50000000E-01
  8.50000000E-01  8.50000000E-01  8.50000000E-01  8.50000000E-01  8.50000000E-01
  8.50000000E-01  8.50000000E-01  8.50000000E-01  8.50000000E-01  8.50000000E-01
  8.50000000E-01  8.50000000E-01  8.50000000E-01  8.50000000E-01  8.50000000E-01
  8.50000000E-01  8.50000000E-01  8.50000000E-01  8.50000000E-01  8.50000000E-01
  8.50000000E-01  8.50000000E-01  8.50000000E-01  8.50000000E-01  8.50000000E-01
  8.50000000E-01  8.50000000E-01  8.50000000E-01  8.50000000E-01  8.50000000E-01
  8.50000000E-01  8.50000000E-01  8.50000000E-01  8.50000000E-01  8.50000000E-01
  8.50000000E-01  8.50000000E-01  8.50000000E-01  8.50000000E-01  8.50000000E-01
  8.50000000E-01  8.50000000E-01  8.50000000E-01  8.50000000E-01  8.50000000E-01
  8.50000000E-01  8.50000000E-01  8.50000000E-01  8.50000000E-01  8.50000000E-01
  8.50000000E-01  8.50000000E-01  8.50000000E-01  8.50000000E-01  8.50000000E-01
  8.50000000E-01  8.50000000E-01  8.50000000E-01  8.50000000E-01  8.50000000E-01
  8.50000000E-01  8.50000000E-01  8.50000000E-01  8.50000000E-01  8.50000000E-01
  8.50000000E-01  8.50000000E-01  8.50000000E-01  8.50000000E-01  8.50000000E-01
  8.50000000E-01  8.50000000E-01  8.50000000E-01  8.50000000E-01  8.50000000E-01
  8.50000000E-01  8.50000000E-01  8.50000000E-01  8.50000000E-01  8.50000000E-01
  8.50000000E-01  8.50000000E-01  8.50000000E-01  8.50000000E-01  8.50000000E-01
  8.50000000E-01  8.50000000E-01  8.50000000E-01  8.50000000E-01  8.50000000E-01
  8.50000000E-01  8.50000000E-01  8.50000000E-01  8.50000000E-01  8.50000000E-01
  8.50000000E-01  8.50000000E-01  8.50000000E-01  8.50000000E-01  8.50000000E-01
  8.50000000E-01  8.50000000E-01  8.50000000E-01  8.50000000E-01  8.50000000E-01
  8.50000000E-01  8.50000000E-01  8.50000000E-01  8.50000000E-01  8.50000000E-01
  8.50000000E-01  8.50000000E-01  8.50000000E-01  8.50000000E-01  8.50000000E-01
  8.50000000E-01  8.50000000E-01  8.50000000E-01  8.50000000E-01  8.50000000E-01
  8.50000000E-01  8.50000000E-01  8.50000000E-01  8.50000000E-01  8.50000000E-01
  8.50000000E-01  8.50000000E-01  8.50000000E-01  8.50000000E-01  8.50000000E-01
  8.50000000E-01  8.50000000E-01  8.50000000E-01  8.50000000E-01  8.50000000E-01
  8.50000000E-01  8.50000000E-01  8.50000000E-01  8.50000000E-01  8.50000000E-01
  8.50000000E-01  8.50000000E-01  8.50000000E-01  8.50000000E-01  8.50000000E-01
  8.50000000E-01  8.50000000E-01  8.50000000E-01  8.50000000E-01  8.50000000E-01
  8.50000000E-01  8.50000000E-01  8.50000000E-01  8.50000000E-01  8.50000000E-01
  8.50000000E-01  8.50000000E-01  8.50000000E-01  8.50000000E-01  8.50000000E-01
  8.50000000E-01  8.50000000E-01  8.50000000E-01  8.50000000E-01  8.50000000E-01
  8.50000000E-01  8.50000000E-01  8.50000000E-01  8.50000000E-01  8.50000000E-01
  8.50000000E-01  8.50000000E-01  8.50000000E-01  8.50000000E-01  8.50000000E-01
  8.50000000E-01  8.50000000E-01  8.50000000E-01  8.50000000E-01  8.50000000E-01
  8.50000000E-01  8.50000000E-01  8.50000000E-01  8.50000000E-01  8.50000000E-01
  8.50000000E-01  8.50000000E-01  8.50000000E-01  8.50000000E-01  8.50000000E-01
  8.50000000E-01  8.50000000E-01  8.50000000E-01  8.50000000E-01  8.50000000E-01
  8.50000000E-01  8.50000000E-01  8.50000000E-01  8.50000000E-01  8.50000000E-01
  8.50000000E-01  8.50000000E-01  8.50000000E-01  8.50000000E-01  8.50000000E-01
  8.50000000E-01  8.50000000E-01  8.50000000E-01  8.50000000E-01  8.50000000E-01
  8.50000000E-01  8.50000000E-01  8.50000000E-01  8.50000000E-01  8.50000000E-01
  8.50000000E-01  8.50000000E-01  8.50000000E-01  8.50000000E-01  8.50000000E-01
  8.50000000E-01  8.50000000E-01  8.50000000E-01  8.50000000E-01  8.50000000E-01
  8.50000000E-01  8.50000000E-01  8.50000000E-01  8.50000000E-01  8.50000000E-01
  8.50000000E-01  8.50000000E-01  8.50000000E-01  8.50000000E-01  8.50000000E-01
  8.50000000E-01  8.50000000E-01  8.50000000E-01  8.50000000E-01  8.50000000E-01
  8.50000000E-01  8.50000000E-01  8.50000000E-01  8.50000000E-01  8.50000000E-01
  8.50000000E-01  8.50000000E-01  8.50000000E-01  8.50000000E-01  8.50000000E-01
  8.50000000E-01  8.50000000E-01  8.50000000E-01  8.50000000E-01  8.50000000E-01
  8.50000000E-01  8.50000000E-01  8.50000000E-01  8.50000000E-01  8.50000000E-01
  8.50000000E-01  8.50000000E-01  8.50000000E-01  8.50000000E-01  8.50000000E-01
  8.50000000E-01  8.50000000E-01  8.50000000E-01  8.50000000E-01  8.50000000E-01
  8.50000000E-01  8.50000000E-01  8.50000000E-01  8.50000000E-01  8.50000000E-01
  8.50000000E-01  8.50000000E-01  8.50000000E-01  8.50000000E-01  8.50000000E-01
  8.50000000E-01  8.50000000E-01  8.50000000E-01  8.50000000E-01  8.50000000E-01
  8.50000000E-01  8.50000000E-01  8.50000000E-01  8.50000000E-01  8.50000000E-01
  8.50000000E-01  8.50000000E-01  8.50000000E-01  8.50000000E-01  8.50000000E-01
  8.50000000E-01  8.50000000E-01  8.50000000E-01  8.50000000E-01  8.50000000E-01
  8.50000000E-01  8.50000000E-01  8.50000000E-01  8.50000000E-01  8.50000000E-01
  8.50000000E-01  8.50000000E-01  8.50000000E-01  8.50000000E-01  8.50000000E-01
  8.50000000E-01  8.50000000E-01  8.50000000E-01  8.50000000E-01  8.50000000E-01
  8.50000000E-01  8.50000000E-01  8.50000000E-01  8.50000000E-01  8.50000000E-01
  8.50000000E-01  8.50000000E-01  8.50000000E-01  8.50000000E-01  8.50000000E-01
  8.50000000E-01  8.50000000E-01  8.50000000E-01  8.50000000E-01  8.50000000E-01
  8.50000000E-01  8.50000000E-01  8.50000000E-01  8.50000000E-01  8.50000000E-01
  8.50000000E-01  8.50000000E-01  8.50000000E-01  8.50000000E-01  8.50000000E-01
  8.50000000E-01  8.50000000E-01  8.50000000E-01  8.50000000E-01  8.50000000E-01
  8.50000000E-01  8.50000000E-01  8.50000000E-01  8.50000000E-01  8.50000000E-01
  8.50000000E-01  8.50000000E-01  8.50000000E-01  8.50000000E-01  8.50000000E-01
  8.50000000E-01  8.50000000E-01  8.50000000E-01  8.50000000E-01  8.50000000E-01
  8.50000000E-01  8.50000000E-01  8.50000000E-01  8.50000000E-01  8.50000000E-01
  8.50000000E-01  8.50000000E-01  8.50000000E-01  8.50000000E-01  8.50000000E-01
  8.50000000E-01  8.50000000E-01  8.50000000E-01  8.50000000E-01  8.50000000E-01
  8.50000000E-01  8.50000000E-01  8.50000000E-01  8.50000000E-01  8.50000000E-01
  8.50000000E-01  8.50000000E-01  8.50000000E-01  8.50000000E-01  8.50000000E-01
  8.50000000E-01  8.50000000E-01  8.50000000E-01  8.50000000E-01  8.50000000E-01
  8.50000000E-01  8.50000000E-01  8.50000000E-01  8.50000000E-01  8.50000000E-01
  8.50000000E-01  8.50000000E-01  8.50000000E-01  8.50000000E-01  8.50000000E-01
  8.50000000E-01  8.50000000E-01  8.50000000E-01  8.50000000E-01  8.50000000E-01
  8.50000000E-01  8.50000000E-01  8.50000000E-01  8.50000000E-01  8.50000000E-01
  8.50000000E-01  8.50000000E-01  8.50000000E-01  8.50000000E-01  8.50000000E-01
  8.50000000E-01  8.50000000E-01  8.50000000E-01  8.50000000E-01  8.50000000E-01
  8.50000000E-01  8.50000000E-01  8.50000000E-01  8.50000000E-01  8.50000000E-01
  8.50000000E-01  8.50000000E-01  8.50000000E-01  8.50000000E-01  8.50000000E-01
  8.50000000E-01  8.50000000E-01  8.50000000E-01  8.50000000E-01  8.50000000E-01
  8.50000000E-01  8.50000000E-01  8.50000000E-01  8.50000000E-01  8.50000000E-01
  8.50000000E-01  8.50000000E-01  8.50000000E-01  8.50000000E-01  8.50000000E-01
  8.50000000E-01  8.50000000E-01  8.50000000E-01  8.50000000E-01  8.50000000E-01
  8.50000000E-01  8.50000000E-01  8.50000000E-01  8.50000000E-01  8.50000000E-01
  8.50000000E-01  8.50000000E-01  8.50000000E-01  8.50000000E-01  8.50000000E-01
  8.50000000E-01  8.50000000E-01  8.50000000E-01  8.50000000E-01  8.50000000E-01
  8.50000000E-01  8.50000000E-01  8.50000000E-01  8.50000000E-01  8.50000000E-01
  8.50000000E-01  8.50000000E-01  8.50000000E-01  8.50000000E-01  8.50000000E-01
  8.50000000E-01  8.50000000E-01  8.50000000E-01  8.50000000E-01  8.50000000E-01
  8.50000000E-01  8.50000000E-01  8.50000000E-01  8.50000000E-01  8.50000000E-01
  8.50000000E-01  8.50000000E-01  8.50000000E-01  8.50000000E-01  8.50000000E-01
  8.50000000E-01  8.50000000E-01  8.50000000E-01  8.50000000E-01  8.50000000E-01
  8.50000000E-01  8.50000000E-01  8.50000000E-01  8.50000000E-01  8.50000000E-01
  8.50000000E-01  8.50000000E-01  8.50000000E-01  8.50000000E-01  8.50000000E-01
  8.50000000E-01  8.50000000E-01  8.50000000E-01  8.50000000E-01  8.50000000E-01
  8.50000000E-01  8.50000000E-01  8.50000000E-01  8.50000000E-01  8.50000000E-01
  8.50000000E-01  8.50000000E-01  8.50000000E-01  8.50000000E-01  8.50000000E-01
  8.50000000E-01  8.50000000E-01  8.50000000E-01  8.50000000E-01  8.50000000E-01
  8.50000000E-01  8.50000000E-01  8.50000000E-01  8.50000000E-01  8.50000000E-01
  8.50000000E-01  8.50000000E-01  8.50000000E-01  8.50000000E-01  8.50000000E-01
  8.50000000E-01  8.50000000E-01  8.50000000E-01  8.50000000E-01  8.50000000E-01
  8.50000000E-01  8.50000000E-01  8.50000000E-01  8.50000000E-01  8.50000000E-01
  8.50000000E-01  8.50000000E-01  8.50000000E-01  8.50000000E-01  8.50000000E-01
  8.50000000E-01  8.50000000E-01  8.50000000E-01  8.50000000E-01  8.50000000E-01
  8.50000000E-01  8.50000000E-01  8.50000000E-01  8.50000000E-01  8.50000000E-01
  8.50000000E-01  8.50000000E-01  8.50000000E-01  8.50000000E-01  8.50000000E-01
  8.50000000E-01  8.50000000E-01  8.50000000E-01  8.50000000E-01  8.50000000E-01
  8.50000000E-01  8.50000000E-01  8.50000000E-01  8.50000000E-01  8.50000000E-01
  8.50000000E-01  8.50000000E-01  8.50000000E-01  8.50000000E-01  8.50000000E-01
  8.50000000E-01  8.50000000E-01  8.50000000E-01  8.50000000E-01  8.50000000E-01
  8.50000000E-01  8.50000000E-01  8.50000000E-01  8.50000000E-01  8.50000000E-01
  8.50000000E-01  8.50000000E-01  8.50000000E-01  8.50000000E-01  8.50000000E-01
  8.50000000E-01  8.50000000E-01  8.50000000E-01  8.50000000E-01  8.50000000E-01
  8.50000000E-01  8.50000000E-01  8.50000000E-01  8.50000000E-01  8.50000000E-01
  8.50000000E-01  8.50000000E-01  8.50000000E-01  8.50000000E-01  8.50000000E-01
  8.50000000E-01  8.50000000E-01  8.50000000E-01  8.50000000E-01  8.50000000E-01
  8.50000000E-01  8.50000000E-01  8.50000000E-01  8.50000000E-01  8.50000000E-01
  8.50000000E-01  8.50000000E-01  8.50000000E-01  8.50000000E-01  8.50000000E-01
  8.50000000E-01  8.50000000E-01  8.50000000E-01  8.50000000E-01  8.50000000E-01
  8.50000000E-01  8.50000000E-01  8.50000000E-01  8.50000000E-01  8.50000000E-01
  8.50000000E-01  8.50000000E-01  8.50000000E-01  8.50000000E-01  8.50000000E-01
  8.50000000E-01  8.50000000E-01  8.50000000E-01  8.50000000E-01  8.50000000E-01
  8.50000000E-01  8.50000000E-01  8.50000000E-01  8.50000000E-01  8.50000000E-01
  8.50000000E-01  8.50000000E-01  8.50000000E-01  8.50000000E-01  8.50000000E-01
  8.50000000E-01  8.50000000E-01  8.50000000E-01  8.50000000E-01  8.50000000E-01
  8.50000000E-01  8.50000000E-01  8.50000000E-01  8.50000000E-01  8.50000000E-01
  8.50000000E-01  8.50000000E-01  8.50000000E-01  8.50000000E-01  8.50000000E-01
  8.50000000E-01  8.50000000E-01  8.50000000E-01  8.50000000E-01  8.50000000E-01
  8.50000000E-01  8.50000000E-01  8.50000000E-01  8.50000000E-01  8.50000000E-01
  8.50000000E-01  8.50000000E-01  8.50000000E-01  8.50000000E-01  8.50000000E-01
  8.50000000E-01  8.50000000E-01  8.50000000E-01  8.50000000E-01  8.50000000E-01
  8.50000000E-01  8.50000000E-01  8.50000000E-01  8.50000000E-01  8.50000000E-01
  8.50000000E-01  8.50000000E-01  8.50000000E-01  8.50000000E-01  8.50000000E-01
  8.50000000E-01  8.50000000E-01  8.50000000E-01  8.50000000E-01  8.50000000E-01
  8.50000000E-01  8.50000000E-01  8.50000000E-01  8.50000000E-01  8.50000000E-01
  8.50000000E-01  8.50000000E-01  8.50000000E-01  8.50000000E-01  8.50000000E-01
  8.50000000E-01  8.50000000E-01  8.50000000E-01  8.50000000E-01  8.50000000E-01
  8.50000000E-01  8.50000000E-01  8.50000000E-01  8.50000000E-01  8.50000000E-01
  8.50000000E-01  8.50000000E-01  8.50000000E-01  8.50000000E-01  8.50000000E-01
  8.50000000E-01  8.50000000E-01  8.50000000E-01  8.50000000E-01  8.50000000E-01
  8.50000000E-01  8.50000000E-01  8.50000000E-01  8.50000000E-01  8.50000000E-01
  8.50000000E-01  8.50000000E-01  8.50000000E-01  8.50000000E-01  8.50000000E-01
  8.50000000E-01  8.50000000E-01  8.50000000E-01  8.50000000E-01  8.50000000E-01
  8.50000000E-01  8.50000000E-01  8.50000000E-01  8.50000000E-01  8.50000000E-01
  8.50000000E-01  8.50000000E-01  8.50000000E-01  8.50000000E-01  8.50000000E-01
  8.50000000E-01  8.50000000E-01  8.50000000E-01  8.50000000E-01  8.50000000E-01
  8.50000000E-01  8.50000000E-01  8.50000000E-01  8.50000000E-01  8.50000000E-01
  8.50000000E-01  8.50000000E-01  8.50000000E-01  8.50000000E-01  8.50000000E-01
  8.50000000E-01  8.50000000E-01  8.50000000E-01  8.50000000E-01  8.50000000E-01
  8.50000000E-01  8.50000000E-01  8.50000000E-01  8.50000000E-01  8.50000000E-01
  8.50000000E-01  8.50000000E-01  8.50000000E-01  8.50000000E-01  8.50000000E-01
  8.50000000E-01  8.50000000E-01  8.50000000E-01  8.50000000E-01  8.50000000E-01
  8.50000000E-01  8.50000000E-01  8.50000000E-01  8.50000000E-01  8.50000000E-01
  8.50000000E-01  8.50000000E-01  8.50000000E-01  8.50000000E-01  8.50000000E-01
  8.50000000E-01  8.50000000E-01  8.50000000E-01  8.50000000E-01  8.50000000E-01
  8.50000000E-01  8.50000000E-01  8.50000000E-01  8.50000000E-01  8.50000000E-01
  8.50000000E-01  8.50000000E-01  8.50000000E-01  8.50000000E-01  8.50000000E-01
  8.50000000E-01  8.50000000E-01  8.50000000E-01  8.50000000E-01  8.50000000E-01
  8.50000000E-01  8.50000000E-01  8.50000000E-01  8.50000000E-01  8.50000000E-01
  8.50000000E-01  8.50000000E-01  8.50000000E-01  8.50000000E-01  8.50000000E-01
  8.50000000E-01  8.50000000E-01  8.50000000E-01  8.50000000E-01  8.50000000E-01
  8.50000000E-01  8.50000000E-01  8.50000000E-01  8.50000000E-01  8.50000000E-01
  8.50000000E-01  8.50000000E-01  8.50000000E-01  8.50000000E-01  8.50000000E-01
  8.50000000E-01  8.50000000E-01  8.50000000E-01  8.50000000E-01  8.50000000E-01
  8.50000000E-01  8.50000000E-01  8.50000000E-01  8.50000000E-01  8.50000000E-01
  8.50000000E-01  8.50000000E-01  8.50000000E-01  8.50000000E-01  8.50000000E-01
  8.50000000E-01  8.50000000E-01  8.50000000E-01  8.50000000E-01  8.50000000E-01
  8.50000000E-01  8.50000000E-01  8.50000000E-01  8.50000000E-01  8.50000000E-01
  8.50000000E-01  8.50000000E-01  8.50000000E-01  8.50000000E-01  8.50000000E-01
  8.50000000E-01  8.50000000E-01  8.50000000E-01  8.50000000E-01  8.50000000E-01
  8.50000000E-01  8.50000000E-01  8.50000000E-01  8.50000000E-01  8.50000000E-01
  8.50000000E-01  8.50000000E-01  8.50000000E-01  8.50000000E-01  8.50000000E-01
  8.50000000E-01  8.50000000E-01  8.50000000E-01  8.50000000E-01  8.50000000E-01
  8.50000000E-01  8.50000000E-01  8.50000000E-01  8.50000000E-01  8.50000000E-01
  8.50000000E-01  8.50000000E-01  8.50000000E-01  8.50000000E-01  8.50000000E-01
  8.50000000E-01  8.50000000E-01  8.50000000E-01  8.50000000E-01  8.50000000E-01
  8.50000000E-01  8.50000000E-01  8.50000000E-01  8.50000000E-01  8.50000000E-01
  8.50000000E-01  8.50000000E-01  8.50000000E-01  8.50000000E-01  8.50000000E-01
  8.50000000E-01  8.50000000E-01  8.50000000E-01  8.50000000E-01  8.50000000E-01
  8.50000000E-01  8.50000000E-01  8.50000000E-01  8.50000000E-01  8.50000000E-01
  8.50000000E-01  8.50000000E-01  8.50000000E-01  8.50000000E-01  8.50000000E-01
  8.50000000E-01  8.50000000E-01  8.50000000E-01  8.50000000E-01  8.50000000E-01
  8.50000000E-01  8.50000000E-01  8.50000000E-01  8.50000000E-01  8.50000000E-01
  8.50000000E-01  8.50000000E-01  8.50000000E-01  8.50000000E-01  8.50000000E-01
  8.50000000E-01  8.50000000E-01  8.50000000E-01  8.50000000E-01  8.50000000E-01
  8.50000000E-01  8.50000000E-01  8.50000000E-01  8.50000000E-01  8.50000000E-01
  8.50000000E-01  8.50000000E-01  8.50000000E-01  8.50000000E-01  8.50000000E-01
  8.50000000E-01  8.50000000E-01  8.50000000E-01  8.50000000E-01  8.50000000E-01
  8.50000000E-01  8.50000000E-01  8.50000000E-01  8.50000000E-01  8.50000000E-01
  8.50000000E-01  8.50000000E-01  8.50000000E-01  8.50000000E-01  8.50000000E-01
  8.50000000E-01  8.50000000E-01  8.50000000E-01  8.50000000E-01  8.50000000E-01
  8.50000000E-01  8.50000000E-01  8.50000000E-01  8.50000000E-01  8.50000000E-01
  8.50000000E-01  8.50000000E-01  8.50000000E-01  8.50000000E-01  8.50000000E-01
  8.50000000E-01  8.50000000E-01  8.50000000E-01  8.50000000E-01  8.50000000E-01
  8.50000000E-01  8.50000000E-01  8.50000000E-01  8.50000000E-01  8.50000000E-01
  8.50000000E-01  8.50000000E-01  8.50000000E-01  8.50000000E-01  8.50000000E-01
  8.50000000E-01  8.50000000E-01  8.50000000E-01  8.50000000E-01  8.50000000E-01
  8.50000000E-01  8.50000000E-01  8.50000000E-01  8.50000000E-01  8.50000000E-01
  8.50000000E-01  8.50000000E-01  8.50000000E-01  8.50000000E-01  8.50000000E-01
  8.50000000E-01  8.50000000E-01  8.50000000E-01  8.50000000E-01  8.50000000E-01
  8.50000000E-01  8.50000000E-01  8.50000000E-01  8.50000000E-01  8.50000000E-01
  8.50000000E-01  8.50000000E-01  8.50000000E-01  8.50000000E-01  8.50000000E-01
  8.50000000E-01  8.50000000E-01  8.50000000E-01  8.50000000E-01  8.50000000E-01
  8.50000000E-01  8.50000000E-01  8.50000000E-01  8.50000000E-01  8.50000000E-01
  8.50000000E-01  8.50000000E-01  8.50000000E-01  8.50000000E-01  8.50000000E-01
  8.50000000E-01  8.50000000E-01  8.50000000E-01  8.50000000E-01  8.50000000E-01
  8.50000000E-01  8.50000000E-01  8.50000000E-01  8.50000000E-01  8.50000000E-01
  8.50000000E-01  8.50000000E-01  8.50000000E-01  8.50000000E-01  8.50000000E-01
  8.50000000E-01  8.50000000E-01  8.50000000E-01  8.50000000E-01  8.50000000E-01
  8.50000000E-01  8.50000000E-01  8.50000000E-01  8.50000000E-01  8.50000000E-01
  8.50000000E-01  8.50000000E-01  8.50000000E-01  8.50000000E-01  8.50000000E-01
  8.50000000E-01  8.50000000E-01  8.50000000E-01  8.50000000E-01  8.50000000E-01
  8.50000000E-01  8.50000000E-01  8.50000000E-01  8.50000000E-01  8.50000000E-01
  8.50000000E-01  8.50000000E-01  8.50000000E-01  8.50000000E-01  8.50000000E-01
  8.50000000E-01  8.50000000E-01  8.50000000E-01  8.50000000E-01  8.50000000E-01
  8.50000000E-01  8.50000000E-01  8.50000000E-01  8.50000000E-01  8.50000000E-01
  8.50000000E-01  8.50000000E-01  8.50000000E-01  8.50000000E-01  8.50000000E-01
  8.50000000E-01  8.50000000E-01  8.50000000E-01  8.50000000E-01  8.50000000E-01
  8.50000000E-01  8.50000000E-01  8.50000000E-01  8.50000000E-01  8.50000000E-01
  8.50000000E-01  8.50000000E-01  8.50000000E-01  8.50000000E-01  8.50000000E-01
  8.50000000E-01  8.50000000E-01  8.50000000E-01  8.50000000E-01  8.50000000E-01
  8.50000000E-01  8.50000000E-01  8.50000000E-01  8.50000000E-01  8.50000000E-01
  8.50000000E-01  8.50000000E-01  8.50000000E-01  8.50000000E-01  8.50000000E-01
  8.50000000E-01  8.50000000E-01  8.50000000E-01  8.50000000E-01  8.50000000E-01
  8.50000000E-01  8.50000000E-01  8.50000000E-01  8.50000000E-01  8.50000000E-01
  8.50000000E-01  8.50000000E-01  8.50000000E-01  8.50000000E-01  8.50000000E-01
  8.50000000E-01  8.50000000E-01  8.50000000E-01  8.50000000E-01  8.50000000E-01
  8.50000000E-01  8.50000000E-01  8.50000000E-01  8.50000000E-01  8.50000000E-01
  8.50000000E-01  8.50000000E-01  8.50000000E-01  8.50000000E-01  8.50000000E-01
  8.50000000E-01  8.50000000E-01  8.50000000E-01  8.50000000E-01  8.50000000E-01
  8.50000000E-01  8.50000000E-01  8.50000000E-01  8.50000000E-01  8.50000000E-01
  8.50000000E-01  8.50000000E-01  8.50000000E-01  8.50000000E-01  8.50000000E-01
  8.50000000E-01  8.50000000E-01  8.50000000E-01  8.50000000E-01  8.50000000E-01
  8.50000000E-01  8.50000000E-01  8.50000000E-01  8.50000000E-01  8.50000000E-01
  8.50000000E-01  8.50000000E-01  8.50000000E-01  8.50000000E-01  8.50000000E-01
  8.50000000E-01  8.50000000E-01  8.50000000E-01  8.50000000E-01  8.50000000E-01
  8.50000000E-01  8.50000000E-01  8.50000000E-01  8.50000000E-01  8.50000000E-01
  8.50000000E-01  8.50000000E-01  8.50000000E-01  8.50000000E-01  8.50000000E-01
  8.50000000E-01  8.50000000E-01  8.50000000E-01  8.50000000E-01  8.50000000E-01
  8.50000000E-01  8.50000000E-01  8.50000000E-01  8.50000000E-01  8.50000000E-01
  8.50000000E-01  8.50000000E-01  8.50000000E-01  8.50000000E-01  8.50000000E-01
  8.50000000E-01  8.50000000E-01  8.50000000E-01  8.50000000E-01  8.50000000E-01
  8.50000000E-01  8.50000000E-01  8.50000000E-01  8.50000000E-01  8.50000000E-01
  8.50000000E-01  8.50000000E-01  8.50000000E-01  8.50000000E-01  8.50000000E-01
  8.50000000E-01  8.50000000E-01  8.50000000E-01  8.50000000E-01  8.50000000E-01
  8.50000000E-01  8.50000000E-01  8.50000000E-01  8.50000000E-01  8.50000000E-01
  8.50000000E-01  8.50000000E-01  8.50000000E-01  8.50000000E-01  8.50000000E-01
  8.50000000E-01  8.50000000E-01  8.50000000E-01  8.50000000E-01  8.50000000E-01
  8.50000000E-01  8.50000000E-01  8.50000000E-01  8.50000000E-01  8.50000000E-01
  8.50000000E-01  8.50000000E-01  8.50000000E-01  8.50000000E-01  8.50000000E-01
  8.50000000E-01  8.50000000E-01  8.50000000E-01  8.50000000E-01  8.50000000E-01
  8.50000000E-01  8.50000000E-01  8.50000000E-01  8.50000000E-01  8.50000000E-01
  8.50000000E-01  8.50000000E-01  8.50000000E-01  8.50000000E-01  8.50000000E-01
  8.50000000E-01  8.50000000E-01  8.50000000E-01  8.50000000E-01  8.50000000E-01
  8.50000000E-01  8.50000000E-01  8.50000000E-01  8.50000000E-01  8.50000000E-01
  8.50000000E-01  8.50000000E-01  8.50000000E-01  8.50000000E-01  8.50000000E-01
  8.50000000E-01  8.50000000E-01  8.50000000E-01  8.50000000E-01  8.50000000E-01
  8.50000000E-01  8.50000000E-01  8.50000000E-01  8.50000000E-01  8.50000000E-01
  8.50000000E-01  8.50000000E-01  8.50000000E-01  8.50000000E-01  8.50000000E-01
  8.50000000E-01  8.50000000E-01  8.50000000E-01  8.50000000E-01  8.50000000E-01
  8.50000000E-01  8.50000000E-01  8.50000000E-01  8.50000000E-01  8.50000000E-01
  8.50000000E-01  8.50000000E-01  8.50000000E-01  8.50000000E-01  8.50000000E-01
  8.50000000E-01  8.50000000E-01  8.50000000E-01  8.50000000E-01  8.50000000E-01
  8.50000000E-01  8.50000000E-01  8.50000000E-01  8.50000000E-01  8.50000000E-01
  8.50000000E-01  8.50000000E-01  8.50000000E-01  8.50000000E-01  8.50000000E-01
  8.50000000E-01  8.50000000E-01  8.50000000E-01  8.50000000E-01  8.50000000E-01
  8.50000000E-01  8.50000000E-01  8.50000000E-01  8.50000000E-01  8.50000000E-01
  8.50000000E-01  8.50000000E-01  8.50000000E-01  8.50000000E-01  8.50000000E-01
  8.50000000E-01  8.50000000E-01  8.50000000E-01  8.50000000E-01  8.50000000E-01
  8.50000000E-01  8.50000000E-01  8.50000000E-01  8.50000000E-01  8.50000000E-01
  8.50000000E-01  8.50000000E-01  8.50000000E-01  8.50000000E-01  8.50000000E-01
  8.50000000E-01  8.50000000E-01  8.50000000E-01  8.50000000E-01  8.50000000E-01
  8.50000000E-01  8.50000000E-01  8.50000000E-01  8.50000000E-01  8.50000000E-01
  8.50000000E-01  8.50000000E-01  8.50000000E-01  8.50000000E-01  8.50000000E-01
  8.50000000E-01  8.50000000E-01  8.50000000E-01  8.50000000E-01  8.50000000E-01
  8.50000000E-01  8.50000000E-01  8.50000000E-01  8.50000000E-01  8.50000000E-01
  8.50000000E-01  8.50000000E-01  8.50000000E-01  8.50000000E-01  8.50000000E-01
  8.50000000E-01  8.50000000E-01  8.50000000E-01  8.50000000E-01  8.50000000E-01
  8.50000000E-01  8.50000000E-01  8.50000000E-01  8.50000000E-01  8.50000000E-01
  8.50000000E-01  8.50000000E-01  8.50000000E-01  8.50000000E-01  8.50000000E-01
  8.50000000E-01  8.50000000E-01  8.50000000E-01  8.50000000E-01  8.50000000E-01
  8.50000000E-01  8.50000000E-01  8.50000000E-01  8.50000000E-01  8.50000000E-01
  8.50000000E-01  8.50000000E-01  8.50000000E-01  8.50000000E-01  8.50000000E-01
  8.50000000E-01  8.50000000E-01  8.50000000E-01  8.50000000E-01  8.50000000E-01
  8.50000000E-01  8.50000000E-01  8.50000000E-01  8.50000000E-01  8.50000000E-01
  8.50000000E-01  8.50000000E-01  8.50000000E-01  8.50000000E-01  8.50000000E-01
  8.50000000E-01  8.50000000E-01  8.50000000E-01  8.50000000E-01  8.50000000E-01
  8.50000000E-01  8.50000000E-01  8.50000000E-01  8.50000000E-01  8.50000000E-01
  8.50000000E-01  8.50000000E-01  8.50000000E-01  8.50000000E-01  8.50000000E-01
  8.50000000E-01  8.50000000E-01  8.50000000E-01  8.50000000E-01  8.50000000E-01
  8.50000000E-01  8.50000000E-01  8.50000000E-01  8.50000000E-01  8.50000000E-01
  8.50000000E-01  8.50000000E-01  8.50000000E-01  8.50000000E-01  8.50000000E-01
  8.50000000E-01  8.50000000E-01  8.50000000E-01  8.50000000E-01  8.50000000E-01
  8.50000000E-01  8.50000000E-01  8.50000000E-01  8.50000000E-01  8.50000000E-01
  8.50000000E-01  8.50000000E-01  8.50000000E-01  8.50000000E-01  8.50000000E-01
  8.50000000E-01  8.50000000E-01  8.50000000E-01  8.50000000E-01  8.50000000E-01
  8.50000000E-01  8.50000000E-01  8.50000000E-01  8.50000000E-01  8.50000000E-01
  8.50000000E-01  8.50000000E-01  8.50000000E-01  8.50000000E-01  8.50000000E-01
  8.50000000E-01  8.50000000E-01  8.50000000E-01  8.50000000E-01  8.50000000E-01
  8.50000000E-01  8.50000000E-01  8.50000000E-01  8.50000000E-01  8.50000000E-01
  8.50000000E-01  8.50000000E-01  8.50000000E-01  8.50000000E-01  8.50000000E-01
  8.50000000E-01  8.50000000E-01  8.50000000E-01  8.50000000E-01  8.50000000E-01
  8.50000000E-01  8.50000000E-01  8.50000000E-01  8.50000000E-01  8.50000000E-01
  8.50000000E-01  8.50000000E-01  8.50000000E-01  8.50000000E-01  8.50000000E-01
  8.50000000E-01  8.50000000E-01  8.50000000E-01  8.50000000E-01  8.50000000E-01
  8.50000000E-01  8.50000000E-01  8.50000000E-01  8.50000000E-01  8.50000000E-01
  8.50000000E-01  8.50000000E-01  8.50000000E-01  8.50000000E-01  8.50000000E-01
  8.50000000E-01  8.50000000E-01  8.50000000E-01  8.50000000E-01  8.50000000E-01
  8.50000000E-01  8.50000000E-01  8.50000000E-01  8.50000000E-01  8.50000000E-01
  8.50000000E-01  8.50000000E-01  8.50000000E-01  8.50000000E-01  8.50000000E-01
  8.50000000E-01  8.50000000E-01  8.50000000E-01  8.50000000E-01  8.50000000E-01
  8.50000000E-01  8.50000000E-01  8.50000000E-01  8.50000000E-01  8.50000000E-01
  8.50000000E-01  8.50000000E-01  8.50000000E-01  8.50000000E-01  8.50000000E-01
  8.50000000E-01  8.50000000E-01  8.50000000E-01  8.50000000E-01  8.50000000E-01
  8.50000000E-01  8.50000000E-01  8.50000000E-01  8.50000000E-01  8.50000000E-01
  8.50000000E-01  8.50000000E-01  8.50000000E-01  8.50000000E-01  8.50000000E-01
  8.50000000E-01  8.50000000E-01  8.50000000E-01  8.50000000E-01  8.50000000E-01
  8.50000000E-01  8.50000000E-01  8.50000000E-01  8.50000000E-01  8.50000000E-01
  8.50000000E-01  8.50000000E-01  8.50000000E-01  8.50000000E-01  8.50000000E-01
  8.50000000E-01  8.50000000E-01  8.50000000E-01  8.50000000E-01  8.50000000E-01
  8.50000000E-01  8.50000000E-01  8.50000000E-01  8.50000000E-01  8.50000000E-01
  8.50000000E-01  8.50000000E-01  8.50000000E-01  8.50000000E-01  8.50000000E-01
  8.50000000E-01  8.50000000E-01  8.50000000E-01  8.50000000E-01  8.50000000E-01
  8.50000000E-01  8.50000000E-01  8.50000000E-01  8.50000000E-01  8.50000000E-01
  8.50000000E-01  8.50000000E-01  8.50000000E-01  8.50000000E-01  8.50000000E-01
  8.50000000E-01  8.50000000E-01  8.50000000E-01  8.50000000E-01  8.50000000E-01
  8.50000000E-01  8.50000000E-01  8.50000000E-01  8.50000000E-01  8.50000000E-01
  8.50000000E-01  8.50000000E-01  8.50000000E-01  8.50000000E-01  8.50000000E-01
  8.50000000E-01  8.50000000E-01  8.50000000E-01  8.50000000E-01  8.50000000E-01
  8.50000000E-01  8.50000000E-01  8.50000000E-01  8.50000000E-01  8.50000000E-01
  8.50000000E-01  8.50000000E-01  8.50000000E-01  8.50000000E-01  8.50000000E-01
  8.50000000E-01  8.50000000E-01  8.50000000E-01  8.50000000E-01  8.50000000E-01
  8.50000000E-01  8.50000000E-01  8.50000000E-01  8.50000000E-01  8.50000000E-01
  8.50000000E-01  8.50000000E-01  8.50000000E-01  8.50000000E-01  8.50000000E-01
  8.50000000E-01  8.50000000E-01  8.50000000E-01  8.50000000E-01  8.50000000E-01
  8.50000000E-01  8.50000000E-01  8.50000000E-01  8.50000000E-01  8.50000000E-01
  8.50000000E-01  8.50000000E-01  8.50000000E-01  8.50000000E-01  8.50000000E-01
  8.50000000E-01  8.50000000E-01  8.50000000E-01  8.50000000E-01  8.50000000E-01
  8.50000000E-01  8.50000000E-01  8.50000000E-01  8.50000000E-01  8.50000000E-01
  8.50000000E-01  8.50000000E-01  8.50000000E-01  8.50000000E-01  8.50000000E-01
  8.50000000E-01  8.50000000E-01  8.50000000E-01  8.50000000E-01  8.50000000E-01
  8.50000000E-01  8.50000000E-01  8.50000000E-01  8.50000000E-01  8.50000000E-01
  8.50000000E-01  8.50000000E-01  8.50000000E-01  8.50000000E-01  8.50000000E-01
  8.50000000E-01  8.50000000E-01  8.50000000E-01  8.50000000E-01  8.50000000E-01
  8.50000000E-01  8.50000000E-01  8.50000000E-01  8.50000000E-01  8.50000000E-01
  8.50000000E-01  8.50000000E-01  8.50000000E-01  8.50000000E-01  8.50000000E-01
  8.50000000E-01  8.50000000E-01  8.50000000E-01  8.50000000E-01  8.50000000E-01
  8.50000000E-01  8.50000000E-01  8.50000000E-01  8.50000000E-01  8.50000000E-01
  8.50000000E-01  8.50000000E-01  8.50000000E-01  8.50000000E-01  8.50000000E-01
  8.50000000E-01  8.50000000E-01  8.50000000E-01  8.50000000E-01  8.50000000E-01
  8.50000000E-01  8.50000000E-01  8.50000000E-01  8.50000000E-01  8.50000000E-01
  8.50000000E-01  8.50000000E-01  8.50000000E-01  8.50000000E-01  8.50000000E-01
  8.50000000E-01  8.50000000E-01  8.50000000E-01  8.50000000E-01  8.50000000E-01
  8.50000000E-01  8.50000000E-01  8.50000000E-01  8.50000000E-01  8.50000000E-01
  8.50000000E-01  8.50000000E-01  8.50000000E-01  8.50000000E-01  8.50000000E-01
  8.50000000E-01  8.50000000E-01  8.50000000E-01  8.50000000E-01  8.50000000E-01
  8.50000000E-01  8.50000000E-01  8.50000000E-01  8.50000000E-01  8.50000000E-01
  8.50000000E-01  8.50000000E-01  8.50000000E-01  8.50000000E-01  8.50000000E-01
  8.50000000E-01  8.50000000E-01  8.50000000E-01  8.50000000E-01  8.50000000E-01
  8.50000000E-01  8.50000000E-01  8.50000000E-01  8.50000000E-01  8.50000000E-01
  8.50000000E-01  8.50000000E-01  8.50000000E-01  8.50000000E-01  8.50000000E-01
  8.50000000E-01  8.50000000E-01  8.50000000E-01  8.50000000E-01  8.50000000E-01
  8.50000000E-01  8.50000000E-01  8.50000000E-01  8.50000000E-01  8.50000000E-01
  8.50000000E-01  8.50000000E-01  8.50000000E-01  8.50000000E-01  8.50000000E-01
  8.50000000E-01  8.50000000E-01  8.50000000E-01  8.50000000E-01  8.50000000E-01
  8.50000000E-01  8.50000000E-01  8.50000000E-01  8.50000000E-01  8.50000000E-01
  8.50000000E-01  8.50000000E-01  8.50000000E-01  8.50000000E-01  8.50000000E-01
  8.50000000E-01  8.50000000E-01  8.50000000E-01  8.50000000E-01  8.50000000E-01
  8.50000000E-01  8.50000000E-01  8.50000000E-01  8.50000000E-01  8.50000000E-01
  8.50000000E-01  8.50000000E-01  8.50000000E-01  8.50000000E-01  8.50000000E-01
  8.50000000E-01  8.50000000E-01  8.50000000E-01  8.50000000E-01  8.50000000E-01
  8.50000000E-01  8.50000000E-01  8.50000000E-01  8.50000000E-01  8.50000000E-01
  8.50000000E-01  8.50000000E-01  8.50000000E-01  8.50000000E-01  8.50000000E-01
  8.50000000E-01  8.50000000E-01  8.50000000E-01  8.50000000E-01  8.50000000E-01
  8.50000000E-01  8.50000000E-01  8.50000000E-01  8.50000000E-01  8.50000000E-01
  8.50000000E-01  8.50000000E-01  8.50000000E-01  8.50000000E-01  8.50000000E-01
  8.50000000E-01  8.50000000E-01  8.50000000E-01  8.50000000E-01  8.50000000E-01
  8.50000000E-01  8.50000000E-01  8.50000000E-01  8.50000000E-01  8.50000000E-01
  8.50000000E-01  8.50000000E-01  8.50000000E-01  8.50000000E-01  8.50000000E-01
  8.50000000E-01  8.50000000E-01  8.50000000E-01  8.50000000E-01  8.50000000E-01
  8.50000000E-01  8.50000000E-01  8.50000000E-01  8.50000000E-01  8.50000000E-01
  8.50000000E-01  8.50000000E-01  8.50000000E-01  8.50000000E-01  8.50000000E-01
  8.50000000E-01  8.50000000E-01  8.50000000E-01  8.50000000E-01  8.50000000E-01
  8.50000000E-01  8.50000000E-01  8.50000000E-01  8.50000000E-01  8.50000000E-01
  8.50000000E-01  8.50000000E-01  8.50000000E-01  8.50000000E-01  8.50000000E-01
  8.50000000E-01  8.50000000E-01  8.50000000E-01  8.50000000E-01  8.50000000E-01
  8.50000000E-01  8.50000000E-01  8.50000000E-01  8.50000000E-01  8.50000000E-01
  8.50000000E-01  8.50000000E-01  8.50000000E-01  8.50000000E-01  8.50000000E-01
  8.50000000E-01  8.50000000E-01  8.50000000E-01  8.50000000E-01  8.50000000E-01
  8.50000000E-01  8.50000000E-01  8.50000000E-01  8.50000000E-01  8.50000000E-01
  8.50000000E-01  8.50000000E-01  8.50000000E-01  8.50000000E-01  8.50000000E-01
  8.50000000E-01  8.50000000E-01  8.50000000E-01  8.50000000E-01  8.50000000E-01
  8.50000000E-01  8.50000000E-01  8.50000000E-01  8.50000000E-01  8.50000000E-01
  8.50000000E-01  8.50000000E-01  8.50000000E-01  8.50000000E-01  8.50000000E-01
  8.50000000E-01  8.50000000E-01  8.50000000E-01  8.50000000E-01  8.50000000E-01
  8.50000000E-01  8.50000000E-01  8.50000000E-01  8.50000000E-01  8.50000000E-01
  8.50000000E-01  8.50000000E-01  8.50000000E-01  8.50000000E-01  8.50000000E-01
  8.50000000E-01  8.50000000E-01  8.50000000E-01  8.50000000E-01  8.50000000E-01
  8.50000000E-01  8.50000000E-01  8.50000000E-01  8.50000000E-01  8.50000000E-01
  8.50000000E-01  8.50000000E-01  8.50000000E-01  8.50000000E-01  8.50000000E-01
  8.50000000E-01  8.50000000E-01  8.50000000E-01  8.50000000E-01  8.50000000E-01
  8.50000000E-01  8.50000000E-01  8.50000000E-01  8.50000000E-01  8.50000000E-01
  8.50000000E-01  8.50000000E-01  8.50000000E-01  8.50000000E-01  8.50000000E-01
  8.50000000E-01  8.50000000E-01  8.50000000E-01  8.50000000E-01  8.50000000E-01
  8.50000000E-01  8.50000000E-01  8.50000000E-01  8.50000000E-01  8.50000000E-01
  8.50000000E-01  8.50000000E-01  8.50000000E-01  8.50000000E-01  8.50000000E-01
  8.50000000E-01  8.50000000E-01  8.50000000E-01  8.50000000E-01  8.50000000E-01
  8.50000000E-01  8.50000000E-01  8.50000000E-01  8.50000000E-01  8.50000000E-01
  8.50000000E-01  8.50000000E-01  8.50000000E-01  8.50000000E-01  8.50000000E-01
  8.50000000E-01  8.50000000E-01  8.50000000E-01  8.50000000E-01  8.50000000E-01
  8.50000000E-01  8.50000000E-01  8.50000000E-01  8.50000000E-01  8.50000000E-01
  8.50000000E-01  8.50000000E-01  8.50000000E-01  8.50000000E-01  8.50000000E-01
  8.50000000E-01  8.50000000E-01  8.50000000E-01  8.50000000E-01  8.50000000E-01
  8.50000000E-01  8.50000000E-01  8.50000000E-01  8.50000000E-01  8.50000000E-01
  8.50000000E-01  8.50000000E-01  8.50000000E-01  8.50000000E-01  8.50000000E-01
  8.50000000E-01  8.50000000E-01  8.50000000E-01  8.50000000E-01  8.50000000E-01
  8.50000000E-01  8.50000000E-01  8.50000000E-01  8.50000000E-01  8.50000000E-01
  8.50000000E-01  8.50000000E-01  8.50000000E-01  8.50000000E-01  8.50000000E-01
  8.50000000E-01  8.50000000E-01  8.50000000E-01  8.50000000E-01  8.50000000E-01
  8.50000000E-01  8.50000000E-01  8.50000000E-01  8.50000000E-01  8.50000000E-01
  8.50000000E-01  8.50000000E-01  8.50000000E-01  8.50000000E-01  8.50000000E-01
  8.50000000E-01  8.50000000E-01  8.50000000E-01  8.50000000E-01  8.50000000E-01
  8.50000000E-01  8.50000000E-01  8.50000000E-01  8.50000000E-01  8.50000000E-01
  8.50000000E-01  8.50000000E-01  8.50000000E-01  8.50000000E-01  8.50000000E-01
  8.50000000E-01  8.50000000E-01  8.50000000E-01  8.50000000E-01  8.50000000E-01
  8.50000000E-01  8.50000000E-01  8.50000000E-01  8.50000000E-01  8.50000000E-01
  8.50000000E-01  8.50000000E-01  8.50000000E-01  8.50000000E-01  8.50000000E-01
  8.50000000E-01  8.50000000E-01  8.50000000E-01  8.50000000E-01  8.50000000E-01
  8.50000000E-01  8.50000000E-01  8.50000000E-01  8.50000000E-01  8.50000000E-01
  8.50000000E-01  8.50000000E-01  8.50000000E-01  8.50000000E-01  8.50000000E-01
  8.50000000E-01  8.50000000E-01  8.50000000E-01  8.50000000E-01  8.50000000E-01
  8.50000000E-01  8.50000000E-01  8.50000000E-01  8.50000000E-01  8.50000000E-01
  8.50000000E-01  8.50000000E-01  8.50000000E-01  8.50000000E-01  8.50000000E-01
  8.50000000E-01  8.50000000E-01  8.50000000E-01  8.50000000E-01  8.50000000E-01
  8.50000000E-01  8.50000000E-01  8.50000000E-01  8.50000000E-01  8.50000000E-01
  8.50000000E-01  8.50000000E-01  8.50000000E-01  8.50000000E-01  8.50000000E-01
  8.50000000E-01  8.50000000E-01  8.50000000E-01  8.50000000E-01  8.50000000E-01
  8.50000000E-01  8.50000000E-01  8.50000000E-01  8.50000000E-01  8.50000000E-01
  8.50000000E-01  8.50000000E-01  8.50000000E-01  8.50000000E-01  8.50000000E-01
  8.50000000E-01  8.50000000E-01  8.50000000E-01  8.50000000E-01  8.50000000E-01
  8.50000000E-01  8.50000000E-01  8.50000000E-01  8.50000000E-01  8.50000000E-01
  8.50000000E-01  8.50000000E-01  8.50000000E-01  8.50000000E-01  8.50000000E-01
  8.50000000E-01  8.50000000E-01  8.50000000E-01  8.50000000E-01  8.50000000E-01
  8.50000000E-01  8.50000000E-01  8.50000000E-01  8.50000000E-01  8.50000000E-01
  8.50000000E-01  8.50000000E-01  8.50000000E-01  8.50000000E-01  8.50000000E-01
  8.50000000E-01  8.50000000E-01  8.50000000E-01  8.50000000E-01  8.50000000E-01
  8.50000000E-01  8.50000000E-01  8.50000000E-01  8.50000000E-01  8.50000000E-01
  8.50000000E-01  8.50000000E-01  8.50000000E-01  8.50000000E-01  8.50000000E-01
  8.50000000E-01  8.50000000E-01  8.50000000E-01  8.50000000E-01  8.50000000E-01
  8.50000000E-01  8.50000000E-01  8.50000000E-01  8.50000000E-01  8.50000000E-01
  8.50000000E-01  8.50000000E-01  8.50000000E-01  8.50000000E-01  8.50000000E-01
  8.50000000E-01  8.50000000E-01  8.50000000E-01  8.50000000E-01  8.50000000E-01
  8.50000000E-01  8.50000000E-01  8.50000000E-01  8.50000000E-01  8.50000000E-01
  8.50000000E-01  8.50000000E-01  8.50000000E-01  8.50000000E-01  8.50000000E-01
  8.50000000E-01  8.50000000E-01  8.50000000E-01  8.50000000E-01  8.50000000E-01
  8.50000000E-01  8.50000000E-01  8.50000000E-01  8.50000000E-01  8.50000000E-01
  8.50000000E-01  8.50000000E-01  8.50000000E-01  8.50000000E-01  8.50000000E-01
  8.50000000E-01  8.50000000E-01  8.50000000E-01  8.50000000E-01  8.50000000E-01
  8.50000000E-01  8.50000000E-01  8.50000000E-01  8.50000000E-01  8.50000000E-01
  8.50000000E-01  8.50000000E-01  8.50000000E-01  8.50000000E-01  8.50000000E-01
  8.50000000E-01  8.50000000E-01  8.50000000E-01  8.50000000E-01  8.50000000E-01
  8.50000000E-01  8.50000000E-01  8.50000000E-01  8.50000000E-01  8.50000000E-01
  8.50000000E-01  8.50000000E-01  8.50000000E-01  8.50000000E-01  8.50000000E-01
  8.50000000E-01  8.50000000E-01  8.50000000E-01  8.50000000E-01  8.50000000E-01
  8.50000000E-01  8.50000000E-01  8.50000000E-01  8.50000000E-01  8.50000000E-01
  8.50000000E-01  8.50000000E-01  8.50000000E-01  8.50000000E-01  8.50000000E-01
  8.50000000E-01  8.50000000E-01  8.50000000E-01  8.50000000E-01  8.50000000E-01
  8.50000000E-01  8.50000000E-01  8.50000000E-01  8.50000000E-01  8.50000000E-01
  8.50000000E-01  8.50000000E-01  8.50000000E-01  8.50000000E-01  8.50000000E-01
  8.50000000E-01  8.50000000E-01  8.50000000E-01  8.50000000E-01  8.50000000E-01
  8.50000000E-01  8.50000000E-01  8.50000000E-01  8.50000000E-01  8.50000000E-01
  8.50000000E-01  8.50000000E-01  8.50000000E-01  8.50000000E-01  8.50000000E-01
  8.50000000E-01  8.50000000E-01  8.50000000E-01  8.50000000E-01  8.50000000E-01
  8.50000000E-01  8.50000000E-01  8.50000000E-01  8.50000000E-01  8.50000000E-01
  8.50000000E-01  8.50000000E-01  8.50000000E-01  8.50000000E-01  8.50000000E-01
  8.50000000E-01  8.50000000E-01  8.50000000E-01  8.50000000E-01  8.50000000E-01
  8.50000000E-01  8.50000000E-01  8.50000000E-01  8.50000000E-01  8.50000000E-01
  8.50000000E-01  8.50000000E-01  8.50000000E-01  8.50000000E-01  8.50000000E-01
  8.50000000E-01  8.50000000E-01  8.50000000E-01  8.50000000E-01  8.50000000E-01
  8.50000000E-01  8.50000000E-01  8.50000000E-01  8.50000000E-01  8.50000000E-01
  8.50000000E-01  8.50000000E-01  8.50000000E-01  8.50000000E-01  8.50000000E-01
  8.50000000E-01  8.50000000E-01  8.50000000E-01  8.50000000E-01  8.50000000E-01
  8.50000000E-01  8.50000000E-01  8.50000000E-01  8.50000000E-01  8.50000000E-01
  8.50000000E-01  8.50000000E-01  8.50000000E-01  8.50000000E-01  8.50000000E-01
  8.50000000E-01  8.50000000E-01  8.50000000E-01  8.50000000E-01  8.50000000E-01
  8.50000000E-01  8.50000000E-01  8.50000000E-01  8.50000000E-01  8.50000000E-01
  8.50000000E-01  8.50000000E-01  8.50000000E-01  8.50000000E-01  8.50000000E-01
  8.50000000E-01  8.50000000E-01  8.50000000E-01  8.50000000E-01  8.50000000E-01
  8.50000000E-01  8.50000000E-01  8.50000000E-01  8.50000000E-01  8.50000000E-01
  8.50000000E-01  8.50000000E-01  8.50000000E-01  8.50000000E-01  8.50000000E-01
  8.50000000E-01  8.50000000E-01  8.50000000E-01  8.50000000E-01  8.50000000E-01
  8.50000000E-01  8.50000000E-01  8.50000000E-01  8.50000000E-01  8.50000000E-01
  8.50000000E-01  8.50000000E-01  8.50000000E-01  8.50000000E-01  8.50000000E-01
  8.50000000E-01  8.50000000E-01  8.50000000E-01  8.50000000E-01  8.50000000E-01
  8.50000000E-01  8.50000000E-01  8.50000000E-01  8.50000000E-01  8.50000000E-01
  8.50000000E-01  8.50000000E-01  8.50000000E-01  8.50000000E-01  8.50000000E-01
  8.50000000E-01  8.50000000E-01  8.50000000E-01  8.50000000E-01  8.50000000E-01
  8.50000000E-01  8.50000000E-01  8.50000000E-01  8.50000000E-01  8.50000000E-01
  8.50000000E-01  8.50000000E-01  8.50000000E-01  8.50000000E-01  8.50000000E-01
  8.50000000E-01  8.50000000E-01  8.50000000E-01  8.50000000E-01  8.50000000E-01
  8.50000000E-01  8.50000000E-01  8.50000000E-01  8.50000000E-01  8.50000000E-01
  8.50000000E-01  8.50000000E-01  8.50000000E-01  8.50000000E-01  8.50000000E-01
  8.50000000E-01  8.50000000E-01  8.50000000E-01  8.50000000E-01  8.50000000E-01
  8.50000000E-01  8.50000000E-01  8.50000000E-01  8.50000000E-01  8.50000000E-01
  8.50000000E-01  8.50000000E-01  8.50000000E-01  8.50000000E-01  8.50000000E-01
  8.50000000E-01  8.50000000E-01  8.50000000E-01  8.50000000E-01  8.50000000E-01
  8.50000000E-01  8.50000000E-01  8.50000000E-01  8.50000000E-01  8.50000000E-01
  8.50000000E-01  8.50000000E-01  8.50000000E-01  8.50000000E-01  8.50000000E-01
  8.50000000E-01  8.50000000E-01  8.50000000E-01  8.50000000E-01  8.50000000E-01
  8.50000000E-01  8.50000000E-01  8.50000000E-01  8.50000000E-01  8.50000000E-01
  8.50000000E-01  8.50000000E-01  8.50000000E-01  8.50000000E-01  8.50000000E-01
  8.50000000E-01  8.50000000E-01  8.50000000E-01  8.50000000E-01  8.50000000E-01
  8.50000000E-01  8.50000000E-01  8.50000000E-01  8.50000000E-01  8.50000000E-01
  8.50000000E-01  8.50000000E-01  8.50000000E-01  8.50000000E-01  8.50000000E-01
  8.50000000E-01  8.50000000E-01  8.50000000E-01  8.50000000E-01  8.50000000E-01
  8.50000000E-01  8.50000000E-01  8.50000000E-01  8.50000000E-01  8.50000000E-01
  8.50000000E-01  8.50000000E-01  8.50000000E-01  8.50000000E-01  8.50000000E-01
  8.50000000E-01  8.50000000E-01  8.50000000E-01  8.50000000E-01  8.50000000E-01
  8.50000000E-01  8.50000000E-01  8.50000000E-01  8.50000000E-01  8.50000000E-01
  8.50000000E-01  8.50000000E-01  8.50000000E-01  8.50000000E-01  8.50000000E-01
  8.50000000E-01  8.50000000E-01  8.50000000E-01  8.50000000E-01  8.50000000E-01
  8.50000000E-01  8.50000000E-01  8.50000000E-01  8.50000000E-01  8.50000000E-01
  8.50000000E-01  8.50000000E-01  8.50000000E-01  8.50000000E-01  8.50000000E-01
  8.50000000E-01  8.50000000E-01  8.50000000E-01  8.50000000E-01  8.50000000E-01
  8.50000000E-01  8.50000000E-01  8.50000000E-01  8.50000000E-01  8.50000000E-01
  8.50000000E-01  8.50000000E-01  8.50000000E-01  8.50000000E-01  8.50000000E-01
  8.50000000E-01  8.50000000E-01  8.50000000E-01  8.50000000E-01  8.50000000E-01
  8.50000000E-01  8.50000000E-01  8.50000000E-01  8.50000000E-01  8.50000000E-01
  8.50000000E-01  8.50000000E-01  8.50000000E-01  8.50000000E-01  8.50000000E-01
  8.50000000E-01  8.50000000E-01  8.50000000E-01  8.50000000E-01  8.50000000E-01
  8.50000000E-01  8.50000000E-01  8.50000000E-01  8.50000000E-01  8.50000000E-01
  8.50000000E-01  8.50000000E-01  8.50000000E-01  8.50000000E-01  8.50000000E-01
  8.50000000E-01  8.50000000E-01  8.50000000E-01  8.50000000E-01  8.50000000E-01
  8.50000000E-01  8.50000000E-01  8.50000000E-01  8.50000000E-01  8.50000000E-01
  8.50000000E-01  8.50000000E-01  8.50000000E-01  8.50000000E-01  8.50000000E-01
  8.50000000E-01  8.50000000E-01  8.50000000E-01  8.50000000E-01  8.50000000E-01
  8.50000000E-01  8.50000000E-01  8.50000000E-01  8.50000000E-01  8.50000000E-01
  8.50000000E-01  8.50000000E-01  8.50000000E-01  8.50000000E-01  8.50000000E-01
  8.50000000E-01  8.50000000E-01  8.50000000E-01  8.50000000E-01  8.50000000E-01
  8.50000000E-01  8.50000000E-01  8.50000000E-01  8.50000000E-01  8.50000000E-01
  8.50000000E-01  8.50000000E-01  8.50000000E-01  8.50000000E-01  8.50000000E-01
  8.50000000E-01  8.50000000E-01  8.50000000E-01  8.50000000E-01  8.50000000E-01
  8.50000000E-01  8.50000000E-01  8.50000000E-01  8.50000000E-01  8.50000000E-01
  8.50000000E-01  8.50000000E-01  8.50000000E-01  8.50000000E-01  8.50000000E-01
  8.50000000E-01  8.50000000E-01  8.50000000E-01  8.50000000E-01  8.50000000E-01
  8.50000000E-01  8.50000000E-01  8.50000000E-01  8.50000000E-01  8.50000000E-01
  8.50000000E-01  8.50000000E-01  8.50000000E-01  8.50000000E-01  8.50000000E-01
  8.50000000E-01  8.50000000E-01  8.50000000E-01  8.50000000E-01  8.50000000E-01
  8.50000000E-01  8.50000000E-01  8.50000000E-01  8.50000000E-01  8.50000000E-01
  8.50000000E-01  8.50000000E-01  8.50000000E-01  8.50000000E-01  8.50000000E-01
  8.50000000E-01  8.50000000E-01  8.50000000E-01  8.50000000E-01  8.50000000E-01
  8.50000000E-01  8.50000000E-01  8.50000000E-01  8.50000000E-01  8.50000000E-01
  8.50000000E-01  8.50000000E-01  8.50000000E-01  8.50000000E-01  8.50000000E-01
  8.50000000E-01  8.50000000E-01  8.50000000E-01  8.50000000E-01  8.50000000E-01
  8.50000000E-01  8.50000000E-01  8.50000000E-01  8.50000000E-01  8.50000000E-01
  8.50000000E-01  8.50000000E-01  8.50000000E-01  8.50000000E-01  8.50000000E-01
  8.50000000E-01  8.50000000E-01  8.50000000E-01  8.50000000E-01  8.50000000E-01
  8.50000000E-01  8.50000000E-01  8.50000000E-01  8.50000000E-01  8.50000000E-01
  8.50000000E-01  8.50000000E-01  8.50000000E-01  8.50000000E-01  8.50000000E-01
  8.50000000E-01  8.50000000E-01  8.50000000E-01  8.50000000E-01  8.50000000E-01
  8.50000000E-01  8.50000000E-01  8.50000000E-01  8.50000000E-01  8.50000000E-01
  8.50000000E-01  8.50000000E-01  8.50000000E-01  8.50000000E-01  8.50000000E-01
  8.50000000E-01  8.50000000E-01  8.50000000E-01  8.50000000E-01  8.50000000E-01
  8.50000000E-01  8.50000000E-01  8.50000000E-01  8.50000000E-01  8.50000000E-01
  8.50000000E-01  8.50000000E-01  8.50000000E-01  8.50000000E-01  8.50000000E-01
  8.50000000E-01  8.50000000E-01  8.50000000E-01  8.50000000E-01  8.50000000E-01
  8.50000000E-01  8.50000000E-01  8.50000000E-01  8.50000000E-01  8.50000000E-01
  8.50000000E-01  8.50000000E-01  8.50000000E-01  8.50000000E-01  8.50000000E-01
  8.50000000E-01  8.50000000E-01  8.50000000E-01  8.50000000E-01  8.50000000E-01
  8.50000000E-01  8.50000000E-01  8.50000000E-01  8.50000000E-01  8.50000000E-01
  8.50000000E-01  8.50000000E-01  8.50000000E-01  8.50000000E-01  8.50000000E-01
  8.50000000E-01  8.50000000E-01  8.50000000E-01  8.50000000E-01  8.50000000E-01
  8.50000000E-01  8.50000000E-01  8.50000000E-01  8.50000000E-01  8.50000000E-01
  8.50000000E-01  8.50000000E-01  8.50000000E-01  8.50000000E-01  8.50000000E-01
  8.50000000E-01  8.50000000E-01  8.50000000E-01  8.50000000E-01  8.50000000E-01
  8.50000000E-01  8.50000000E-01  8.50000000E-01  8.50000000E-01  8.50000000E-01
  8.50000000E-01  8.50000000E-01  8.50000000E-01  8.50000000E-01  8.50000000E-01
  8.50000000E-01  8.50000000E-01  8.50000000E-01  8.50000000E-01  8.50000000E-01
  8.50000000E-01  8.50000000E-01  8.50000000E-01  8.50000000E-01  8.50000000E-01
  8.50000000E-01  8.50000000E-01  8.50000000E-01  8.50000000E-01  8.50000000E-01
  8.50000000E-01  8.50000000E-01  8.50000000E-01  8.50000000E-01  8.50000000E-01
  8.50000000E-01  8.50000000E-01  8.50000000E-01  8.50000000E-01  8.50000000E-01
  8.50000000E-01  8.50000000E-01  8.50000000E-01  8.50000000E-01  8.50000000E-01
  8.50000000E-01  8.50000000E-01  8.50000000E-01  8.50000000E-01  8.50000000E-01
  8.50000000E-01  8.50000000E-01  8.50000000E-01  8.50000000E-01  8.50000000E-01
  8.50000000E-01  8.50000000E-01  8.50000000E-01  8.50000000E-01  8.50000000E-01
  8.50000000E-01  8.50000000E-01  8.50000000E-01  8.50000000E-01  8.50000000E-01
  8.50000000E-01  8.50000000E-01  8.50000000E-01  8.50000000E-01  8.50000000E-01
  8.50000000E-01  8.50000000E-01  8.50000000E-01  8.50000000E-01  8.50000000E-01
  8.50000000E-01  8.50000000E-01  8.50000000E-01  8.50000000E-01  8.50000000E-01
  8.50000000E-01  8.50000000E-01  8.50000000E-01  8.50000000E-01  8.50000000E-01
  8.50000000E-01  8.50000000E-01  8.50000000E-01  8.50000000E-01  8.50000000E-01
  8.50000000E-01  8.50000000E-01  8.50000000E-01  8.50000000E-01  8.50000000E-01
  8.50000000E-01  8.50000000E-01  8.50000000E-01  8.50000000E-01  8.50000000E-01
  8.50000000E-01  8.50000000E-01  8.50000000E-01  8.50000000E-01  8.50000000E-01
  8.50000000E-01  8.50000000E-01  8.50000000E-01  8.50000000E-01  8.50000000E-01
  8.50000000E-01  8.50000000E-01  8.50000000E-01  8.50000000E-01  8.50000000E-01
  8.50000000E-01  8.50000000E-01  8.50000000E-01  8.50000000E-01  8.50000000E-01
  8.50000000E-01  8.50000000E-01  8.50000000E-01  8.50000000E-01  8.50000000E-01
  8.50000000E-01  8.50000000E-01  8.50000000E-01  8.50000000E-01  8.50000000E-01
  8.50000000E-01  8.50000000E-01  8.50000000E-01  8.50000000E-01  8.50000000E-01
  8.50000000E-01  8.50000000E-01  8.50000000E-01  8.50000000E-01  8.50000000E-01
  8.50000000E-01  8.50000000E-01  8.50000000E-01  8.50000000E-01  8.50000000E-01
  8.50000000E-01  8.50000000E-01  8.50000000E-01  8.50000000E-01  8.50000000E-01
  8.50000000E-01  8.50000000E-01  8.50000000E-01  8.50000000E-01  8.50000000E-01
  8.50000000E-01  8.50000000E-01  8.50000000E-01  8.50000000E-01  8.50000000E-01
  8.50000000E-01  8.50000000E-01  8.50000000E-01  8.50000000E-01  8.50000000E-01
  8.50000000E-01  8.50000000E-01  8.50000000E-01  8.50000000E-01  8.50000000E-01
  8.50000000E-01  8.50000000E-01  8.50000000E-01  8.50000000E-01  8.50000000E-01
  8.50000000E-01  8.50000000E-01  8.50000000E-01  8.50000000E-01  8.50000000E-01
  8.50000000E-01  8.50000000E-01  8.50000000E-01  8.50000000E-01  8.50000000E-01
  8.50000000E-01  8.50000000E-01  8.50000000E-01  8.50000000E-01  8.50000000E-01
  8.50000000E-01  8.50000000E-01  8.50000000E-01  8.50000000E-01  8.50000000E-01
  8.50000000E-01  8.50000000E-01  8.50000000E-01  8.50000000E-01  8.50000000E-01
  8.50000000E-01  8.50000000E-01  8.50000000E-01  8.50000000E-01  8.50000000E-01
  8.50000000E-01  8.50000000E-01  8.50000000E-01  8.50000000E-01  8.50000000E-01
  8.50000000E-01  8.50000000E-01  8.50000000E-01  8.50000000E-01  8.50000000E-01
  8.50000000E-01  8.50000000E-01  8.50000000E-01  8.50000000E-01  8.50000000E-01
  8.50000000E-01  8.50000000E-01  8.50000000E-01  8.50000000E-01  8.50000000E-01
  8.50000000E-01  8.50000000E-01  8.50000000E-01  8.50000000E-01  8.50000000E-01
  8.50000000E-01  8.50000000E-01  8.50000000E-01  8.50000000E-01  8.50000000E-01
  8.50000000E-01  8.50000000E-01  8.50000000E-01  8.50000000E-01  8.50000000E-01
  8.50000000E-01  8.50000000E-01  8.50000000E-01  8.50000000E-01  8.50000000E-01
  8.50000000E-01  8.50000000E-01  8.50000000E-01  8.50000000E-01  8.50000000E-01
  8.50000000E-01  8.50000000E-01  8.50000000E-01  8.50000000E-01  8.50000000E-01
  8.50000000E-01  8.50000000E-01  8.50000000E-01  8.50000000E-01  8.50000000E-01
  8.50000000E-01  8.50000000E-01  8.50000000E-01  8.50000000E-01  8.50000000E-01
  8.50000000E-01  8.50000000E-01  8.50000000E-01  8.50000000E-01  8.50000000E-01
  8.50000000E-01  8.50000000E-01  8.50000000E-01  8.50000000E-01  8.50000000E-01
  8.50000000E-01  8.50000000E-01  8.50000000E-01  8.50000000E-01  8.50000000E-01
  8.50000000E-01  8.50000000E-01  8.50000000E-01  8.50000000E-01  8.50000000E-01
  8.50000000E-01  8.50000000E-01  8.50000000E-01  8.50000000E-01  8.50000000E-01
  8.50000000E-01  8.50000000E-01  8.50000000E-01  8.50000000E-01  8.50000000E-01
  8.50000000E-01  8.50000000E-01  8.50000000E-01  8.50000000E-01  8.50000000E-01
  8.50000000E-01  8.50000000E-01  8.50000000E-01  8.50000000E-01  8.50000000E-01
  8.50000000E-01  8.50000000E-01  8.50000000E-01  8.50000000E-01  8.50000000E-01
  8.50000000E-01  8.50000000E-01  8.50000000E-01  8.50000000E-01  8.50000000E-01
  8.50000000E-01  8.50000000E-01  8.50000000E-01  8.50000000E-01  8.50000000E-01
  8.50000000E-01  8.50000000E-01  8.50000000E-01  8.50000000E-01  8.50000000E-01
  8.50000000E-01  8.50000000E-01  8.50000000E-01  8.50000000E-01  8.50000000E-01
  8.50000000E-01  8.50000000E-01  8.50000000E-01  8.50000000E-01  8.50000000E-01
  8.50000000E-01  8.50000000E-01  8.50000000E-01  8.50000000E-01  8.50000000E-01
  8.50000000E-01  8.50000000E-01  8.50000000E-01  8.50000000E-01  8.50000000E-01
  8.50000000E-01  8.50000000E-01  8.50000000E-01  8.50000000E-01  8.50000000E-01
  8.50000000E-01  8.50000000E-01  8.50000000E-01  8.50000000E-01  8.50000000E-01
  8.50000000E-01  8.50000000E-01  8.50000000E-01  8.50000000E-01  8.50000000E-01
  8.50000000E-01  8.50000000E-01  8.50000000E-01  8.50000000E-01  8.50000000E-01
  8.50000000E-01  8.50000000E-01  8.50000000E-01  8.50000000E-01  8.50000000E-01
  8.50000000E-01  8.50000000E-01  8.50000000E-01  8.50000000E-01  8.50000000E-01
  8.50000000E-01  8.50000000E-01  8.50000000E-01  8.50000000E-01  8.50000000E-01
  8.50000000E-01  8.50000000E-01  8.50000000E-01  8.50000000E-01  8.50000000E-01
  8.50000000E-01  8.50000000E-01  8.50000000E-01  8.50000000E-01  8.50000000E-01
  8.50000000E-01  8.50000000E-01  8.50000000E-01  8.50000000E-01  8.50000000E-01
  8.50000000E-01  8.50000000E-01  8.50000000E-01  8.50000000E-01  8.50000000E-01
  8.50000000E-01  8.50000000E-01  8.50000000E-01  8.50000000E-01  8.50000000E-01
  8.50000000E-01  8.50000000E-01  8.50000000E-01  8.50000000E-01  8.50000000E-01
  8.50000000E-01  8.50000000E-01  8.50000000E-01  8.50000000E-01  8.50000000E-01
  8.50000000E-01  8.50000000E-01  8.50000000E-01  8.50000000E-01  8.50000000E-01
  8.50000000E-01  8.50000000E-01  8.50000000E-01  8.50000000E-01  8.50000000E-01
  8.50000000E-01  8.50000000E-01  8.50000000E-01  8.50000000E-01  8.50000000E-01
  8.50000000E-01  8.50000000E-01  8.50000000E-01  8.50000000E-01  8.50000000E-01
  8.50000000E-01  8.50000000E-01  8.50000000E-01  8.50000000E-01  8.50000000E-01
  8.50000000E-01  8.50000000E-01  8.50000000E-01  8.50000000E-01  8.50000000E-01
  8.50000000E-01  8.50000000E-01  8.50000000E-01  8.50000000E-01  8.50000000E-01
  8.50000000E-01  8.50000000E-01  8.50000000E-01  8.50000000E-01  8.50000000E-01
  8.50000000E-01  8.50000000E-01  8.50000000E-01  8.50000000E-01  8.50000000E-01
  8.50000000E-01  8.50000000E-01  8.50000000E-01  8.50000000E-01  8.50000000E-01
  8.50000000E-01  8.50000000E-01  8.50000000E-01  8.50000000E-01  8.50000000E-01
  8.50000000E-01  8.50000000E-01  8.50000000E-01  8.50000000E-01  8.50000000E-01
  8.50000000E-01  8.50000000E-01  8.50000000E-01  8.50000000E-01  8.50000000E-01
  8.50000000E-01  8.50000000E-01  8.50000000E-01  8.50000000E-01  8.50000000E-01
  8.50000000E-01  8.50000000E-01  8.50000000E-01  8.50000000E-01  8.50000000E-01
  8.50000000E-01  8.50000000E-01  8.50000000E-01  8.50000000E-01  8.50000000E-01
  8.50000000E-01  8.50000000E-01  8.50000000E-01  8.50000000E-01  8.50000000E-01
  8.50000000E-01  8.50000000E-01  8.50000000E-01  8.50000000E-01  8.50000000E-01
  8.50000000E-01  8.50000000E-01  8.50000000E-01  8.50000000E-01  8.50000000E-01
  8.50000000E-01  8.50000000E-01  8.50000000E-01  8.50000000E-01  8.50000000E-01
  8.50000000E-01  8.50000000E-01  8.50000000E-01  8.50000000E-01  8.50000000E-01
  8.50000000E-01  8.50000000E-01  8.50000000E-01  8.50000000E-01  8.50000000E-01
  8.50000000E-01  8.50000000E-01  8.50000000E-01  8.50000000E-01  8.50000000E-01
  8.50000000E-01  8.50000000E-01  8.50000000E-01  8.50000000E-01  8.50000000E-01
  8.50000000E-01  8.50000000E-01  8.50000000E-01  8.50000000E-01  8.50000000E-01
  8.50000000E-01  8.50000000E-01  8.50000000E-01  8.50000000E-01  8.50000000E-01
  8.50000000E-01  8.50000000E-01  8.50000000E-01  8.50000000E-01  8.50000000E-01
  8.50000000E-01  8.50000000E-01  8.50000000E-01  8.50000000E-01  8.50000000E-01
  8.50000000E-01  8.50000000E-01  8.50000000E-01  8.50000000E-01  8.50000000E-01
  8.50000000E-01  8.50000000E-01  8.50000000E-01  8.50000000E-01  8.50000000E-01
  8.50000000E-01  8.50000000E-01  8.50000000E-01  8.50000000E-01  8.50000000E-01
  8.50000000E-01  8.50000000E-01  8.50000000E-01  8.50000000E-01  8.50000000E-01
  8.50000000E-01  8.50000000E-01  8.50000000E-01  8.50000000E-01  8.50000000E-01
  8.50000000E-01  8.50000000E-01  8.50000000E-01  8.50000000E-01  8.50000000E-01
  8.50000000E-01  8.50000000E-01  8.50000000E-01  8.50000000E-01  8.50000000E-01
  8.50000000E-01  8.50000000E-01  8.50000000E-01  8.50000000E-01  8.50000000E-01
  8.50000000E-01  8.50000000E-01  8.50000000E-01  8.50000000E-01  8.50000000E-01
  8.50000000E-01  8.50000000E-01  8.50000000E-01  8.50000000E-01  8.50000000E-01
  8.50000000E-01  8.50000000E-01  8.50000000E-01  8.50000000E-01  8.50000000E-01
  8.50000000E-01  8.50000000E-01  8.50000000E-01  8.50000000E-01  8.50000000E-01
  8.50000000E-01  8.50000000E-01  8.50000000E-01  8.50000000E-01  8.50000000E-01
  8.50000000E-01  8.50000000E-01  8.50000000E-01  8.50000000E-01  8.50000000E-01
  8.50000000E-01  8.50000000E-01  8.50000000E-01  8.50000000E-01  8.50000000E-01
  8.50000000E-01  8.50000000E-01  8.50000000E-01  8.50000000E-01  8.50000000E-01
  8.50000000E-01  8.50000000E-01  8.50000000E-01  8.50000000E-01  8.50000000E-01
  8.50000000E-01  8.50000000E-01  8.50000000E-01  8.50000000E-01  8.50000000E-01
  8.50000000E-01  8.50000000E-01  8.50000000E-01  8.50000000E-01  8.50000000E-01
  8.50000000E-01  8.50000000E-01  8.50000000E-01  8.50000000E-01  8.50000000E-01
  8.50000000E-01  8.50000000E-01  8.50000000E-01  8.50000000E-01  8.50000000E-01
  8.50000000E-01  8.50000000E-01  8.50000000E-01  8.50000000E-01  8.50000000E-01
  8.50000000E-01  8.50000000E-01  8.50000000E-01  8.50000000E-01  8.50000000E-01
  8.50000000E-01  8.50000000E-01  8.50000000E-01  8.50000000E-01  8.50000000E-01
  8.50000000E-01  8.50000000E-01  8.50000000E-01  8.50000000E-01  8.50000000E-01
  8.50000000E-01  8.50000000E-01  8.50000000E-01  8.50000000E-01  8.50000000E-01
  8.50000000E-01  8.50000000E-01  8.50000000E-01  8.50000000E-01  8.50000000E-01
  8.50000000E-01  8.50000000E-01  8.50000000E-01  8.50000000E-01  8.50000000E-01
  8.50000000E-01  8.50000000E-01  8.50000000E-01  8.50000000E-01  8.50000000E-01
  8.50000000E-01  8.50000000E-01  8.50000000E-01  8.50000000E-01  8.50000000E-01
  8.50000000E-01  8.50000000E-01  8.50000000E-01  8.50000000E-01  8.50000000E-01
  8.50000000E-01  8.50000000E-01  8.50000000E-01  8.50000000E-01  8.50000000E-01
  8.50000000E-01  8.50000000E-01  8.50000000E-01  8.50000000E-01  8.50000000E-01
  8.50000000E-01  8.50000000E-01  8.50000000E-01  8.50000000E-01  8.50000000E-01
  8.50000000E-01  8.50000000E-01  8.50000000E-01  8.50000000E-01  8.50000000E-01
  8.50000000E-01  8.50000000E-01  8.50000000E-01  8.50000000E-01  8.50000000E-01
  8.50000000E-01  8.50000000E-01  8.50000000E-01  8.50000000E-01  8.50000000E-01
  8.50000000E-01  8.50000000E-01  8.50000000E-01  8.50000000E-01  8.50000000E-01
  8.50000000E-01  8.50000000E-01  8.50000000E-01  8.50000000E-01  8.50000000E-01
  8.50000000E-01  8.50000000E-01  8.50000000E-01  8.50000000E-01  8.50000000E-01
  8.50000000E-01  8.50000000E-01  8.50000000E-01  8.50000000E-01  8.50000000E-01
  8.50000000E-01  8.50000000E-01  8.50000000E-01  8.50000000E-01  8.50000000E-01
  8.50000000E-01  8.50000000E-01  8.50000000E-01  8.50000000E-01  8.50000000E-01
  8.50000000E-01  8.50000000E-01  8.50000000E-01  8.50000000E-01  8.50000000E-01
  8.50000000E-01  8.50000000E-01  8.50000000E-01  8.50000000E-01  8.50000000E-01
  8.50000000E-01  8.50000000E-01  8.50000000E-01  8.50000000E-01  8.50000000E-01
  8.50000000E-01  8.50000000E-01  8.50000000E-01  8.50000000E-01  8.50000000E-01
  8.50000000E-01  8.50000000E-01  8.50000000E-01  8.50000000E-01  8.50000000E-01
  8.50000000E-01  8.50000000E-01  8.50000000E-01  8.50000000E-01  8.50000000E-01
  8.50000000E-01  8.50000000E-01  8.50000000E-01  8.50000000E-01  8.50000000E-01
  8.50000000E-01  8.50000000E-01  8.50000000E-01  8.50000000E-01  8.50000000E-01
  8.50000000E-01  8.50000000E-01  8.50000000E-01  8.50000000E-01  8.50000000E-01
  8.50000000E-01  8.50000000E-01  8.50000000E-01  8.50000000E-01  8.50000000E-01
  8.50000000E-01  8.50000000E-01  8.50000000E-01  8.50000000E-01  8.50000000E-01
  8.50000000E-01  8.50000000E-01  8.50000000E-01  8.50000000E-01  8.50000000E-01
  8.50000000E-01  8.50000000E-01  8.50000000E-01  8.50000000E-01  8.50000000E-01
  8.50000000E-01  8.50000000E-01  8.50000000E-01  8.50000000E-01  8.50000000E-01
  8.50000000E-01  8.50000000E-01  8.50000000E-01  8.50000000E-01  8.50000000E-01
  8.50000000E-01  8.50000000E-01  8.50000000E-01  8.50000000E-01  8.50000000E-01
  8.50000000E-01  8.50000000E-01  8.50000000E-01  8.50000000E-01  8.50000000E-01
  8.50000000E-01  8.50000000E-01  8.50000000E-01  8.50000000E-01  8.50000000E-01
  8.50000000E-01  8.50000000E-01  8.50000000E-01  8.50000000E-01  8.50000000E-01
  8.50000000E-01  8.50000000E-01  8.50000000E-01  8.50000000E-01  8.50000000E-01
  8.50000000E-01  8.50000000E-01  8.50000000E-01  8.50000000E-01  8.50000000E-01
  8.50000000E-01  8.50000000E-01  8.50000000E-01  8.50000000E-01  8.50000000E-01
  8.50000000E-01  8.50000000E-01  8.50000000E-01  8.50000000E-01  8.50000000E-01
  8.50000000E-01  8.50000000E-01  8.50000000E-01  8.50000000E-01  8.50000000E-01
  8.50000000E-01  8.50000000E-01  8.50000000E-01  8.50000000E-01  8.50000000E-01
  8.50000000E-01  8.50000000E-01  8.50000000E-01  8.50000000E-01  8.50000000E-01
  8.50000000E-01  8.50000000E-01  8.50000000E-01  8.50000000E-01  8.50000000E-01
  8.50000000E-01  8.50000000E-01  8.50000000E-01  8.50000000E-01  8.50000000E-01
  8.50000000E-01  8.50000000E-01  8.50000000E-01  8.50000000E-01  8.50000000E-01
  8.50000000E-01  8.50000000E-01  8.50000000E-01  8.50000000E-01  8.50000000E-01
  8.50000000E-01  8.50000000E-01  8.50000000E-01  8.50000000E-01  8.50000000E-01
  8.50000000E-01  8.50000000E-01  8.50000000E-01  8.50000000E-01  8.50000000E-01
  8.50000000E-01  8.50000000E-01  8.50000000E-01  8.50000000E-01  8.50000000E-01
  8.50000000E-01  8.50000000E-01  8.50000000E-01  8.50000000E-01  8.50000000E-01
  8.50000000E-01  8.50000000E-01  8.50000000E-01  8.50000000E-01  8.50000000E-01
  8.50000000E-01  8.50000000E-01  8.50000000E-01  8.50000000E-01  8.50000000E-01
  8.50000000E-01  8.50000000E-01  8.50000000E-01  8.50000000E-01  8.50000000E-01
  8.50000000E-01  8.50000000E-01  8.50000000E-01  8.50000000E-01  8.50000000E-01
  8.50000000E-01  8.50000000E-01  8.50000000E-01  8.50000000E-01  8.50000000E-01
  8.50000000E-01  8.50000000E-01  8.50000000E-01  8.50000000E-01  8.50000000E-01
  8.50000000E-01  8.50000000E-01  8.50000000E-01  8.50000000E-01  8.50000000E-01
  8.50000000E-01  8.50000000E-01  8.50000000E-01  8.50000000E-01  8.50000000E-01
  8.50000000E-01  8.50000000E-01  8.50000000E-01  8.50000000E-01  8.50000000E-01
  8.50000000E-01  8.50000000E-01  8.50000000E-01  8.50000000E-01  8.50000000E-01
  8.50000000E-01  8.50000000E-01  8.50000000E-01  8.50000000E-01  8.50000000E-01
  8.50000000E-01  8.50000000E-01  8.50000000E-01  8.50000000E-01  8.50000000E-01
  8.50000000E-01  8.50000000E-01  8.50000000E-01  8.50000000E-01  8.50000000E-01
  8.50000000E-01  8.50000000E-01  8.50000000E-01  8.50000000E-01  8.50000000E-01
  8.50000000E-01  8.50000000E-01  8.50000000E-01  8.50000000E-01  8.50000000E-01
  8.50000000E-01  8.50000000E-01  8.50000000E-01  8.50000000E-01  8.50000000E-01
  8.50000000E-01  8.50000000E-01  8.50000000E-01  8.50000000E-01  8.50000000E-01
  8.50000000E-01  8.50000000E-01  8.50000000E-01  8.50000000E-01  8.50000000E-01
  8.50000000E-01  8.50000000E-01  8.50000000E-01  8.50000000E-01  8.50000000E-01
  8.50000000E-01  8.50000000E-01  8.50000000E-01  8.50000000E-01  8.50000000E-01
  8.50000000E-01  8.50000000E-01  8.50000000E-01  8.50000000E-01  8.50000000E-01
  8.50000000E-01  8.50000000E-01  8.50000000E-01  8.50000000E-01  8.50000000E-01
  8.50000000E-01  8.50000000E-01  8.50000000E-01  8.50000000E-01  8.50000000E-01
  8.50000000E-01  8.50000000E-01  8.50000000E-01  8.50000000E-01  8.50000000E-01
  8.50000000E-01  8.50000000E-01  8.50000000E-01  8.50000000E-01  8.50000000E-01
  8.50000000E-01  8.50000000E-01  8.50000000E-01  8.50000000E-01  8.50000000E-01
  8.50000000E-01  8.50000000E-01  8.50000000E-01  8.50000000E-01  8.50000000E-01
  8.50000000E-01  8.50000000E-01  8.50000000E-01  8.50000000E-01  8.50000000E-01
  8.50000000E-01  8.50000000E-01  8.50000000E-01  8.50000000E-01  8.50000000E-01
  8.50000000E-01  8.50000000E-01  8.50000000E-01  8.50000000E-01  8.50000000E-01
  8.50000000E-01  8.50000000E-01  8.50000000E-01  8.50000000E-01  8.50000000E-01
  8.50000000E-01  8.50000000E-01  8.50000000E-01  8.50000000E-01  8.50000000E-01
  8.50000000E-01  8.50000000E-01  8.50000000E-01  8.50000000E-01  8.50000000E-01
  8.50000000E-01  8.50000000E-01  8.50000000E-01  8.50000000E-01  8.50000000E-01
  8.50000000E-01  8.50000000E-01  8.50000000E-01  8.50000000E-01  8.50000000E-01
  8.50000000E-01  8.50000000E-01  8.50000000E-01  8.50000000E-01  8.50000000E-01
  8.50000000E-01  8.50000000E-01  8.50000000E-01  8.50000000E-01  8.50000000E-01
  8.50000000E-01  8.50000000E-01  8.50000000E-01  8.50000000E-01  8.50000000E-01
  8.50000000E-01  8.50000000E-01  8.50000000E-01  8.50000000E-01  8.50000000E-01
  8.50000000E-01  8.50000000E-01  8.50000000E-01  8.50000000E-01  8.50000000E-01
  8.50000000E-01  8.50000000E-01  8.50000000E-01  8.50000000E-01  8.50000000E-01
  8.50000000E-01  8.50000000E-01  8.50000000E-01  8.50000000E-01  8.50000000E-01
  8.50000000E-01  8.50000000E-01  8.50000000E-01  8.50000000E-01  8.50000000E-01
  8.50000000E-01  8.50000000E-01  8.50000000E-01  8.50000000E-01  8.50000000E-01
  8.50000000E-01  8.50000000E-01  8.50000000E-01  8.50000000E-01  8.50000000E-01
  8.50000000E-01  8.50000000E-01  8.50000000E-01  8.50000000E-01  8.50000000E-01
  8.50000000E-01  8.50000000E-01  8.50000000E-01  8.50000000E-01  8.50000000E-01
  8.50000000E-01  8.50000000E-01  8.50000000E-01  8.50000000E-01  8.50000000E-01
  8.50000000E-01  8.50000000E-01  8.50000000E-01  8.50000000E-01  8.50000000E-01
  8.50000000E-01  8.50000000E-01  8.50000000E-01  8.50000000E-01  8.50000000E-01
  8.50000000E-01  8.50000000E-01  8.50000000E-01  8.50000000E-01  8.50000000E-01
  8.50000000E-01  8.50000000E-01  8.50000000E-01  8.50000000E-01  8.50000000E-01
  8.50000000E-01  8.50000000E-01  8.50000000E-01  8.50000000E-01  8.50000000E-01
  8.50000000E-01  8.50000000E-01  8.50000000E-01  8.50000000E-01  8.50000000E-01
  8.50000000E-01  8.50000000E-01  8.50000000E-01  8.50000000E-01  8.50000000E-01
  8.50000000E-01  8.50000000E-01  8.50000000E-01  8.50000000E-01  8.50000000E-01
  8.50000000E-01  8.50000000E-01  8.50000000E-01  8.50000000E-01  8.50000000E-01
  8.50000000E-01  8.50000000E-01  8.50000000E-01  8.50000000E-01  8.50000000E-01
  8.50000000E-01  8.50000000E-01  8.50000000E-01  8.50000000E-01  8.50000000E-01
  8.50000000E-01  8.50000000E-01  8.50000000E-01  8.50000000E-01  8.50000000E-01
  8.50000000E-01  8.50000000E-01  8.50000000E-01  8.50000000E-01  8.50000000E-01
  8.50000000E-01  8.50000000E-01  8.50000000E-01  8.50000000E-01  8.50000000E-01
  8.50000000E-01  8.50000000E-01  8.50000000E-01  8.50000000E-01  8.50000000E-01
  8.50000000E-01  8.50000000E-01  8.50000000E-01  8.50000000E-01  8.50000000E-01
  8.50000000E-01  8.50000000E-01  8.50000000E-01  8.50000000E-01  8.50000000E-01
  8.50000000E-01  8.50000000E-01  8.50000000E-01  8.50000000E-01  8.50000000E-01
  8.50000000E-01  8.50000000E-01  8.50000000E-01  8.50000000E-01  8.50000000E-01
  8.50000000E-01  8.50000000E-01  8.50000000E-01  8.50000000E-01  8.50000000E-01
  8.50000000E-01  8.50000000E-01  8.50000000E-01  8.50000000E-01  8.50000000E-01
  8.50000000E-01  8.50000000E-01  8.50000000E-01  8.50000000E-01  8.50000000E-01
  8.50000000E-01  8.50000000E-01  8.50000000E-01  8.50000000E-01  8.50000000E-01
  8.50000000E-01  8.50000000E-01  8.50000000E-01  8.50000000E-01  8.50000000E-01
  8.50000000E-01  8.50000000E-01  8.50000000E-01  8.50000000E-01  8.50000000E-01
  8.50000000E-01  8.50000000E-01  8.50000000E-01  8.50000000E-01  8.50000000E-01
  8.50000000E-01  8.50000000E-01  8.50000000E-01  8.50000000E-01  8.50000000E-01
  8.50000000E-01  8.50000000E-01  8.50000000E-01  8.50000000E-01  8.50000000E-01
  8.50000000E-01  8.50000000E-01  8.50000000E-01  8.50000000E-01  8.50000000E-01
  8.50000000E-01  8.50000000E-01  8.50000000E-01  8.50000000E-01  8.50000000E-01
  8.50000000E-01  8.50000000E-01  8.50000000E-01  8.50000000E-01  8.50000000E-01
  8.50000000E-01  8.50000000E-01  8.50000000E-01  8.50000000E-01  8.50000000E-01
  8.50000000E-01  8.50000000E-01  8.50000000E-01  8.50000000E-01  8.50000000E-01
  8.50000000E-01  8.50000000E-01  8.50000000E-01  8.50000000E-01  8.50000000E-01
  8.50000000E-01  8.50000000E-01  8.50000000E-01  8.50000000E-01  8.50000000E-01
  8.50000000E-01  8.50000000E-01  8.50000000E-01  8.50000000E-01  8.50000000E-01
  8.50000000E-01  8.50000000E-01  8.50000000E-01  8.50000000E-01  8.50000000E-01
  8.50000000E-01  8.50000000E-01  8.50000000E-01  8.50000000E-01  8.50000000E-01
  8.50000000E-01  8.50000000E-01  8.50000000E-01  8.50000000E-01  8.50000000E-01
  8.50000000E-01  8.50000000E-01  8.50000000E-01  8.50000000E-01  8.50000000E-01
  8.50000000E-01  8.50000000E-01  8.50000000E-01  8.50000000E-01  8.50000000E-01
  8.50000000E-01  8.50000000E-01  8.50000000E-01  8.50000000E-01  8.50000000E-01
  8.50000000E-01  8.50000000E-01  8.50000000E-01  8.50000000E-01  8.50000000E-01
  8.50000000E-01  8.50000000E-01  8.50000000E-01  8.50000000E-01  8.50000000E-01
  8.50000000E-01  8.50000000E-01  8.50000000E-01  8.50000000E-01  8.50000000E-01
  8.50000000E-01  8.50000000E-01  8.50000000E-01  8.50000000E-01  8.50000000E-01
  8.50000000E-01  8.50000000E-01  8.50000000E-01  8.50000000E-01  8.50000000E-01
  8.50000000E-01  8.50000000E-01  8.50000000E-01  8.50000000E-01  8.50000000E-01
  8.50000000E-01  8.50000000E-01  8.50000000E-01  8.50000000E-01  8.50000000E-01
  8.50000000E-01  8.50000000E-01  8.50000000E-01  8.50000000E-01  8.50000000E-01
  8.50000000E-01  8.50000000E-01  8.50000000E-01  8.50000000E-01  8.50000000E-01
  8.50000000E-01  8.50000000E-01  8.50000000E-01  8.50000000E-01  8.50000000E-01
  8.50000000E-01  8.50000000E-01  8.50000000E-01  8.50000000E-01  8.50000000E-01
  8.50000000E-01  8.50000000E-01  8.50000000E-01  8.50000000E-01  8.50000000E-01
  8.50000000E-01  8.50000000E-01  8.50000000E-01  8.50000000E-01  8.50000000E-01
  8.50000000E-01  8.50000000E-01  8.50000000E-01  8.50000000E-01  8.50000000E-01
  8.50000000E-01  8.50000000E-01  8.50000000E-01  8.50000000E-01  8.50000000E-01
  8.50000000E-01  8.50000000E-01  8.50000000E-01  8.50000000E-01  8.50000000E-01
  8.50000000E-01  8.50000000E-01  8.50000000E-01  8.50000000E-01  8.50000000E-01
  8.50000000E-01  8.50000000E-01  8.50000000E-01  8.50000000E-01  8.50000000E-01
  8.50000000E-01  8.50000000E-01  8.50000000E-01  8.50000000E-01  8.50000000E-01
  8.50000000E-01  8.50000000E-01  8.50000000E-01  8.50000000E-01  8.50000000E-01
  8.50000000E-01  8.50000000E-01  8.50000000E-01  8.50000000E-01  8.50000000E-01
  8.50000000E-01  8.50000000E-01  8.50000000E-01  8.50000000E-01  8.50000000E-01
  8.50000000E-01  8.50000000E-01  8.50000000E-01  8.50000000E-01  8.50000000E-01
  8.50000000E-01  8.50000000E-01  8.50000000E-01  8.50000000E-01  8.50000000E-01
  8.50000000E-01  8.50000000E-01  8.50000000E-01  8.50000000E-01  8.50000000E-01
  8.50000000E-01  8.50000000E-01  8.50000000E-01  8.50000000E-01  8.50000000E-01
  8.50000000E-01  8.50000000E-01  8.50000000E-01  8.50000000E-01  8.50000000E-01
  8.50000000E-01  8.50000000E-01  8.50000000E-01  8.50000000E-01  8.50000000E-01
  8.50000000E-01  8.50000000E-01  8.50000000E-01  8.50000000E-01  8.50000000E-01
  8.50000000E-01  8.50000000E-01  8.50000000E-01  8.50000000E-01  8.50000000E-01
  8.50000000E-01  8.50000000E-01  8.50000000E-01  8.50000000E-01  8.50000000E-01
  8.50000000E-01  8.50000000E-01  8.50000000E-01  8.50000000E-01  8.50000000E-01
  8.50000000E-01  8.50000000E-01  8.50000000E-01  8.50000000E-01  8.50000000E-01
  8.50000000E-01  8.50000000E-01  8.50000000E-01  8.50000000E-01  8.50000000E-01
  8.50000000E-01  8.50000000E-01  8.50000000E-01  8.50000000E-01  8.50000000E-01
  8.50000000E-01  8.50000000E-01  8.50000000E-01  8.50000000E-01  8.50000000E-01
  8.50000000E-01  8.50000000E-01  8.50000000E-01  8.50000000E-01  8.50000000E-01
  8.50000000E-01  8.50000000E-01  8.50000000E-01  8.50000000E-01  8.50000000E-01
  8.50000000E-01  8.50000000E-01  8.50000000E-01  8.50000000E-01  8.50000000E-01
  8.50000000E-01  8.50000000E-01  8.50000000E-01  8.50000000E-01  8.50000000E-01
  8.50000000E-01  8.50000000E-01  8.50000000E-01  8.50000000E-01  8.50000000E-01
  8.50000000E-01  8.50000000E-01  8.50000000E-01  8.50000000E-01  8.50000000E-01
  8.50000000E-01  8.50000000E-01  8.50000000E-01  8.50000000E-01  8.50000000E-01
  8.50000000E-01  8.50000000E-01  8.50000000E-01  8.50000000E-01  8.50000000E-01
  8.50000000E-01  8.50000000E-01  8.50000000E-01  8.50000000E-01  8.50000000E-01
  8.50000000E-01  8.50000000E-01  8.50000000E-01  8.50000000E-01  8.50000000E-01
  8.50000000E-01  8.50000000E-01  8.50000000E-01  8.50000000E-01  8.50000000E-01
  8.50000000E-01  8.50000000E-01  8.50000000E-01  8.50000000E-01  8.50000000E-01
  8.50000000E-01  8.50000000E-01  8.50000000E-01  8.50000000E-01  8.50000000E-01
  8.50000000E-01  8.50000000E-01  8.50000000E-01  8.50000000E-01  8.50000000E-01
  8.50000000E-01  8.50000000E-01  8.50000000E-01  8.50000000E-01  8.50000000E-01
  8.50000000E-01  8.50000000E-01  8.50000000E-01  8.50000000E-01  8.50000000E-01
  8.50000000E-01  8.50000000E-01  8.50000000E-01  8.50000000E-01  8.50000000E-01
  8.50000000E-01  8.50000000E-01  8.50000000E-01  8.50000000E-01  8.50000000E-01
  8.50000000E-01  8.50000000E-01  8.50000000E-01  8.50000000E-01  8.50000000E-01
  8.50000000E-01  8.50000000E-01  8.50000000E-01  8.50000000E-01  8.50000000E-01
  8.50000000E-01  8.50000000E-01  8.50000000E-01  8.50000000E-01  8.50000000E-01
  8.50000000E-01  8.50000000E-01  8.50000000E-01  8.50000000E-01  8.50000000E-01
  8.50000000E-01  8.50000000E-01  8.50000000E-01  8.50000000E-01  8.50000000E-01
  8.50000000E-01  8.50000000E-01  8.50000000E-01  8.50000000E-01  8.50000000E-01
  8.50000000E-01  8.50000000E-01  8.50000000E-01  8.50000000E-01  8.50000000E-01
  8.50000000E-01  8.50000000E-01  8.50000000E-01  8.50000000E-01  8.50000000E-01
  8.50000000E-01  8.50000000E-01  8.50000000E-01  8.50000000E-01  8.50000000E-01
  8.50000000E-01  8.50000000E-01  8.50000000E-01  8.50000000E-01  8.50000000E-01
  8.50000000E-01  8.50000000E-01  8.50000000E-01  8.50000000E-01  8.50000000E-01
  8.50000000E-01  8.50000000E-01  8.50000000E-01  8.50000000E-01  8.50000000E-01
  8.50000000E-01  8.50000000E-01  8.50000000E-01  8.50000000E-01  8.50000000E-01
  8.50000000E-01  8.50000000E-01  8.50000000E-01  8.50000000E-01  8.50000000E-01
  8.50000000E-01  8.50000000E-01  8.50000000E-01  8.50000000E-01  8.50000000E-01
  8.50000000E-01  8.50000000E-01  8.50000000E-01  8.50000000E-01  8.50000000E-01
  8.50000000E-01  8.50000000E-01  8.50000000E-01  8.50000000E-01  8.50000000E-01
  8.50000000E-01  8.50000000E-01  8.50000000E-01  8.50000000E-01  8.50000000E-01
  8.50000000E-01  8.50000000E-01  8.50000000E-01  8.50000000E-01  8.50000000E-01
  8.50000000E-01  8.50000000E-01  8.50000000E-01  8.50000000E-01  8.50000000E-01
  8.50000000E-01  8.50000000E-01  8.50000000E-01  8.50000000E-01  8.50000000E-01
  8.50000000E-01  8.50000000E-01  8.50000000E-01  8.50000000E-01  8.50000000E-01
  8.50000000E-01  8.50000000E-01  8.50000000E-01  8.50000000E-01  8.50000000E-01
  8.50000000E-01  8.50000000E-01  8.50000000E-01  8.50000000E-01  8.50000000E-01
  8.50000000E-01  8.50000000E-01  8.50000000E-01  8.50000000E-01  8.50000000E-01
  8.50000000E-01  8.50000000E-01  8.50000000E-01  8.50000000E-01  8.50000000E-01
  8.50000000E-01  8.50000000E-01  8.50000000E-01  8.50000000E-01  8.50000000E-01
  8.50000000E-01  8.50000000E-01  8.50000000E-01  8.50000000E-01  8.50000000E-01
  8.50000000E-01  8.50000000E-01  8.50000000E-01  8.50000000E-01  8.50000000E-01
  8.50000000E-01  8.50000000E-01  8.50000000E-01  8.50000000E-01  8.50000000E-01
  8.50000000E-01  8.50000000E-01  8.50000000E-01  8.50000000E-01  8.50000000E-01
  8.50000000E-01  8.50000000E-01  8.50000000E-01  8.50000000E-01  8.50000000E-01
  8.50000000E-01  8.50000000E-01  8.50000000E-01  8.50000000E-01  8.50000000E-01
  8.50000000E-01  8.50000000E-01  8.50000000E-01  8.50000000E-01  8.50000000E-01
  8.50000000E-01  8.50000000E-01  8.50000000E-01  8.50000000E-01  8.50000000E-01
  8.50000000E-01  8.50000000E-01  8.50000000E-01  8.50000000E-01  8.50000000E-01
  8.50000000E-01  8.50000000E-01  8.50000000E-01  8.50000000E-01  8.50000000E-01
  8.50000000E-01  8.50000000E-01  8.50000000E-01  8.50000000E-01  8.50000000E-01
  8.50000000E-01  8.50000000E-01  8.50000000E-01  8.50000000E-01  8.50000000E-01
  8.50000000E-01  8.50000000E-01  8.50000000E-01  8.50000000E-01  8.50000000E-01
  8.50000000E-01  8.50000000E-01  8.50000000E-01  8.50000000E-01  8.50000000E-01
  8.50000000E-01  8.50000000E-01  8.50000000E-01  8.50000000E-01  8.50000000E-01
  8.50000000E-01  8.50000000E-01  8.50000000E-01  8.50000000E-01  8.50000000E-01
  8.50000000E-01  8.50000000E-01  8.50000000E-01  8.50000000E-01  8.50000000E-01
  8.50000000E-01  8.50000000E-01  8.50000000E-01  8.50000000E-01  8.50000000E-01
  8.50000000E-01  8.50000000E-01  8.50000000E-01  8.50000000E-01  8.50000000E-01
  8.50000000E-01  8.50000000E-01  8.50000000E-01  8.50000000E-01  8.50000000E-01
  8.50000000E-01  8.50000000E-01  8.50000000E-01  8.50000000E-01  8.50000000E-01
  8.50000000E-01  8.50000000E-01  8.50000000E-01  8.50000000E-01  8.50000000E-01
  8.50000000E-01  8.50000000E-01  8.50000000E-01  8.50000000E-01  8.50000000E-01
  8.50000000E-01  8.50000000E-01  8.50000000E-01  8.50000000E-01  8.50000000E-01
  8.50000000E-01  8.50000000E-01  8.50000000E-01  8.50000000E-01  8.50000000E-01
  8.50000000E-01  8.50000000E-01  8.50000000E-01  8.50000000E-01  8.50000000E-01
  8.50000000E-01  8.50000000E-01  8.50000000E-01  8.50000000E-01  8.50000000E-01
  8.50000000E-01  8.50000000E-01  8.50000000E-01  8.50000000E-01  8.50000000E-01
  8.50000000E-01  8.50000000E-01  8.50000000E-01  8.50000000E-01  8.50000000E-01
  8.50000000E-01  8.50000000E-01  8.50000000E-01  8.50000000E-01  8.50000000E-01
  8.50000000E-01  8.50000000E-01  8.50000000E-01  8.50000000E-01  8.50000000E-01
  8.50000000E-01  8.50000000E-01  8.50000000E-01  8.50000000E-01  8.50000000E-01
  8.50000000E-01  8.50000000E-01  8.50000000E-01  8.50000000E-01  8.50000000E-01
  8.50000000E-01  8.50000000E-01  8.50000000E-01  8.50000000E-01  8.50000000E-01
  8.50000000E-01  8.50000000E-01  8.50000000E-01  8.50000000E-01  8.50000000E-01
  8.50000000E-01  8.50000000E-01  8.50000000E-01  8.50000000E-01  8.50000000E-01
  8.50000000E-01  8.50000000E-01  8.50000000E-01  8.50000000E-01  8.50000000E-01
  8.50000000E-01  8.50000000E-01  8.50000000E-01  8.50000000E-01  8.50000000E-01
  8.50000000E-01  8.50000000E-01  8.50000000E-01  8.50000000E-01  8.50000000E-01
  8.50000000E-01  8.50000000E-01  8.50000000E-01  8.50000000E-01  8.50000000E-01
  8.50000000E-01  8.50000000E-01  8.50000000E-01  8.50000000E-01  8.50000000E-01
  8.50000000E-01  8.50000000E-01  8.50000000E-01  8.50000000E-01  8.50000000E-01
  8.50000000E-01  8.50000000E-01  8.50000000E-01  8.50000000E-01  8.50000000E-01
  8.50000000E-01  8.50000000E-01  8.50000000E-01  8.50000000E-01  8.50000000E-01
  8.50000000E-01  8.50000000E-01  8.50000000E-01  8.50000000E-01  8.50000000E-01
  8.50000000E-01  8.50000000E-01  8.50000000E-01  8.50000000E-01  8.50000000E-01
  8.50000000E-01  8.50000000E-01  8.50000000E-01  8.50000000E-01  8.50000000E-01
  8.50000000E-01  8.50000000E-01  8.50000000E-01  8.50000000E-01  8.50000000E-01
  8.50000000E-01  8.50000000E-01  8.50000000E-01  8.50000000E-01  8.50000000E-01
  8.50000000E-01  8.50000000E-01  8.50000000E-01  8.50000000E-01  8.50000000E-01
  8.50000000E-01  8.50000000E-01  8.50000000E-01  8.50000000E-01  8.50000000E-01
  8.50000000E-01  8.50000000E-01  8.50000000E-01  8.50000000E-01  8.50000000E-01
  8.50000000E-01  8.50000000E-01  8.50000000E-01  8.50000000E-01  8.50000000E-01
  8.50000000E-01  8.50000000E-01  8.50000000E-01  8.50000000E-01  8.50000000E-01
  8.50000000E-01  8.50000000E-01  8.50000000E-01  8.50000000E-01  8.50000000E-01
  8.50000000E-01  8.50000000E-01  8.50000000E-01  8.50000000E-01  8.50000000E-01
  8.50000000E-01  8.50000000E-01  8.50000000E-01  8.50000000E-01  8.50000000E-01
  8.50000000E-01  8.50000000E-01  8.50000000E-01  8.50000000E-01  8.50000000E-01
  8.50000000E-01  8.50000000E-01  8.50000000E-01  8.50000000E-01  8.50000000E-01
  8.50000000E-01  8.50000000E-01  8.50000000E-01  8.50000000E-01  8.50000000E-01
  8.50000000E-01  8.50000000E-01  8.50000000E-01  8.50000000E-01  8.50000000E-01
  8.50000000E-01  8.50000000E-01  8.50000000E-01  8.50000000E-01  8.50000000E-01
  8.50000000E-01  8.50000000E-01  8.50000000E-01  8.50000000E-01  8.50000000E-01
  8.50000000E-01  8.50000000E-01  8.50000000E-01  8.50000000E-01  8.50000000E-01
  8.50000000E-01  8.50000000E-01  8.50000000E-01  8.50000000E-01  8.50000000E-01
  8.50000000E-01  8.50000000E-01  8.50000000E-01  8.50000000E-01  8.50000000E-01
  8.50000000E-01  8.50000000E-01  8.50000000E-01  8.50000000E-01  8.50000000E-01
  8.50000000E-01  8.50000000E-01  8.50000000E-01  8.50000000E-01  8.50000000E-01
  8.50000000E-01  8.50000000E-01  8.50000000E-01  8.50000000E-01  8.50000000E-01
  8.50000000E-01  8.50000000E-01  8.50000000E-01  8.50000000E-01  8.50000000E-01
  8.50000000E-01  8.50000000E-01  8.50000000E-01  8.50000000E-01  8.50000000E-01
  8.50000000E-01  8.50000000E-01  8.50000000E-01  8.50000000E-01  8.50000000E-01
  8.50000000E-01  8.50000000E-01  8.50000000E-01  8.50000000E-01  8.50000000E-01
  8.50000000E-01  8.50000000E-01  8.50000000E-01  8.50000000E-01  8.50000000E-01
  8.50000000E-01  8.50000000E-01  8.50000000E-01  8.50000000E-01  8.50000000E-01
  8.50000000E-01  8.50000000E-01  8.50000000E-01  8.50000000E-01  8.50000000E-01
  8.50000000E-01  8.50000000E-01  8.50000000E-01  8.50000000E-01  8.50000000E-01
  8.50000000E-01  8.50000000E-01  8.50000000E-01  8.50000000E-01  8.50000000E-01
  8.50000000E-01  8.50000000E-01  8.50000000E-01  8.50000000E-01  8.50000000E-01
  8.50000000E-01  8.50000000E-01  8.50000000E-01  8.50000000E-01  8.50000000E-01
  8.50000000E-01  8.50000000E-01  8.50000000E-01  8.50000000E-01  8.50000000E-01
  8.50000000E-01  8.50000000E-01  8.50000000E-01  8.50000000E-01  8.50000000E-01
  8.50000000E-01  8.50000000E-01  8.50000000E-01  8.50000000E-01  8.50000000E-01
  8.50000000E-01  8.50000000E-01  8.50000000E-01  8.50000000E-01  8.50000000E-01
  8.50000000E-01  8.50000000E-01  8.50000000E-01  8.50000000E-01  8.50000000E-01
  8.50000000E-01  8.50000000E-01  8.50000000E-01  8.50000000E-01  8.50000000E-01
  8.50000000E-01  8.50000000E-01  8.50000000E-01  8.50000000E-01  8.50000000E-01
  8.50000000E-01  8.50000000E-01  8.50000000E-01  8.50000000E-01  8.50000000E-01
  8.50000000E-01  8.50000000E-01  8.50000000E-01  8.50000000E-01  8.50000000E-01
  8.50000000E-01  8.50000000E-01  8.50000000E-01  8.50000000E-01  8.50000000E-01
  8.50000000E-01  8.50000000E-01  8.50000000E-01  8.50000000E-01  8.50000000E-01
  8.50000000E-01  8.50000000E-01  8.50000000E-01  8.50000000E-01  8.50000000E-01
  8.50000000E-01  8.50000000E-01  8.50000000E-01  8.50000000E-01  8.50000000E-01
  8.50000000E-01  8.50000000E-01  8.50000000E-01  8.50000000E-01  8.50000000E-01
  8.50000000E-01  8.50000000E-01  8.50000000E-01  8.50000000E-01  8.50000000E-01
  8.50000000E-01  8.50000000E-01  8.50000000E-01  8.50000000E-01  8.50000000E-01
  8.50000000E-01  8.50000000E-01  8.50000000E-01  8.50000000E-01  8.50000000E-01
  8.50000000E-01  8.50000000E-01  8.50000000E-01  8.50000000E-01  8.50000000E-01
  8.50000000E-01  8.50000000E-01  8.50000000E-01  8.50000000E-01  8.50000000E-01
  8.50000000E-01  8.50000000E-01  8.50000000E-01  8.50000000E-01  8.50000000E-01
  8.50000000E-01  8.50000000E-01  8.50000000E-01  8.50000000E-01  8.50000000E-01
  8.50000000E-01  8.50000000E-01  8.50000000E-01  8.50000000E-01  8.50000000E-01
  8.50000000E-01  8.50000000E-01  8.50000000E-01  8.50000000E-01  8.50000000E-01
  8.50000000E-01  8.50000000E-01  8.50000000E-01  8.50000000E-01  8.50000000E-01
  8.50000000E-01  8.50000000E-01  8.50000000E-01  8.50000000E-01  8.50000000E-01
  8.50000000E-01  8.50000000E-01  8.50000000E-01  8.50000000E-01  8.50000000E-01
  8.50000000E-01  8.50000000E-01  8.50000000E-01  8.50000000E-01  8.50000000E-01
  8.50000000E-01  8.50000000E-01  8.50000000E-01  8.50000000E-01  8.50000000E-01
  8.50000000E-01  8.50000000E-01  8.50000000E-01  8.50000000E-01  8.50000000E-01
  8.50000000E-01  8.50000000E-01  8.50000000E-01  8.50000000E-01  8.50000000E-01
  8.50000000E-01  8.50000000E-01  8.50000000E-01  8.50000000E-01  8.50000000E-01
  8.50000000E-01  8.50000000E-01  8.50000000E-01  8.50000000E-01  8.50000000E-01
  8.50000000E-01  8.50000000E-01  8.50000000E-01  8.50000000E-01  8.50000000E-01
  8.50000000E-01  8.50000000E-01  8.50000000E-01  8.50000000E-01  8.50000000E-01
  8.50000000E-01  8.50000000E-01  8.50000000E-01  8.50000000E-01  8.50000000E-01
  8.50000000E-01  8.50000000E-01  8.50000000E-01  8.50000000E-01  8.50000000E-01
  8.50000000E-01  8.50000000E-01  8.50000000E-01  8.50000000E-01  8.50000000E-01
  8.50000000E-01  8.50000000E-01  8.50000000E-01  8.50000000E-01  8.50000000E-01
  8.50000000E-01  8.50000000E-01  8.50000000E-01  8.50000000E-01  8.50000000E-01
  8.50000000E-01  8.50000000E-01  8.50000000E-01  8.50000000E-01  8.50000000E-01
  8.50000000E-01  8.50000000E-01  8.50000000E-01  8.50000000E-01  8.50000000E-01
  8.50000000E-01  8.50000000E-01  8.50000000E-01  8.50000000E-01  8.50000000E-01
  8.50000000E-01  8.50000000E-01  8.50000000E-01  8.50000000E-01  8.50000000E-01
  8.50000000E-01  8.50000000E-01  8.50000000E-01  8.50000000E-01  8.50000000E-01
  8.50000000E-01  8.50000000E-01  8.50000000E-01  8.50000000E-01  8.50000000E-01
  8.50000000E-01  8.50000000E-01  8.50000000E-01  8.50000000E-01  8.50000000E-01
  8.50000000E-01  8.50000000E-01  8.50000000E-01  8.50000000E-01  8.50000000E-01
  8.50000000E-01  8.50000000E-01  8.50000000E-01  8.50000000E-01  8.50000000E-01
  8.50000000E-01  8.50000000E-01  8.50000000E-01  8.50000000E-01  8.50000000E-01
  8.50000000E-01  8.50000000E-01  8.50000000E-01  8.50000000E-01  8.50000000E-01
  8.50000000E-01  8.50000000E-01  8.50000000E-01  8.50000000E-01  8.50000000E-01
  8.50000000E-01  8.50000000E-01  8.50000000E-01  8.50000000E-01  8.50000000E-01
  8.50000000E-01  8.50000000E-01  8.50000000E-01  8.50000000E-01  8.50000000E-01
  8.50000000E-01  8.50000000E-01  8.50000000E-01  8.50000000E-01  8.50000000E-01
  8.50000000E-01  8.50000000E-01  8.50000000E-01  8.50000000E-01  8.50000000E-01
  8.50000000E-01  8.50000000E-01  8.50000000E-01  8.50000000E-01  8.50000000E-01
  8.50000000E-01  8.50000000E-01  8.50000000E-01  8.50000000E-01  8.50000000E-01
  8.50000000E-01  8.50000000E-01  8.50000000E-01  8.50000000E-01  8.50000000E-01
  8.50000000E-01  8.50000000E-01  8.50000000E-01  8.50000000E-01  8.50000000E-01
  8.50000000E-01  8.50000000E-01  8.50000000E-01  8.50000000E-01  8.50000000E-01
  8.50000000E-01  8.50000000E-01  8.50000000E-01  8.50000000E-01  8.50000000E-01
  8.50000000E-01  8.50000000E-01  8.50000000E-01  8.50000000E-01  8.50000000E-01
  8.50000000E-01  8.50000000E-01  8.50000000E-01  8.50000000E-01  8.50000000E-01
  8.50000000E-01  8.50000000E-01  8.50000000E-01  8.50000000E-01  8.50000000E-01
  8.50000000E-01  8.50000000E-01  8.50000000E-01  8.50000000E-01  8.50000000E-01
  8.50000000E-01  8.50000000E-01  8.50000000E-01  8.50000000E-01  8.50000000E-01
  8.50000000E-01  8.50000000E-01  8.50000000E-01  8.50000000E-01  8.50000000E-01
  8.50000000E-01  8.50000000E-01  8.50000000E-01  8.50000000E-01  8.50000000E-01
  8.50000000E-01  8.50000000E-01  8.50000000E-01  8.50000000E-01  8.50000000E-01
  8.50000000E-01  8.50000000E-01  8.50000000E-01  8.50000000E-01  8.50000000E-01
  8.50000000E-01  8.50000000E-01  8.50000000E-01  8.50000000E-01  8.50000000E-01
  8.50000000E-01  8.50000000E-01  8.50000000E-01  8.50000000E-01  8.50000000E-01
  8.50000000E-01  8.50000000E-01  8.50000000E-01  8.50000000E-01  8.50000000E-01
  8.50000000E-01  8.50000000E-01  8.50000000E-01  8.50000000E-01  8.50000000E-01
  8.50000000E-01  8.50000000E-01  8.50000000E-01  8.50000000E-01  8.50000000E-01
  8.50000000E-01  8.50000000E-01  8.50000000E-01  8.50000000E-01  8.50000000E-01
  8.50000000E-01  8.50000000E-01  8.50000000E-01  8.50000000E-01  8.50000000E-01
  8.50000000E-01  8.50000000E-01  8.50000000E-01  8.50000000E-01  8.50000000E-01
  8.50000000E-01  8.50000000E-01  8.50000000E-01  8.50000000E-01  8.50000000E-01
  8.50000000E-01  8.50000000E-01  8.50000000E-01  8.50000000E-01  8.50000000E-01
  8.50000000E-01  8.50000000E-01  8.50000000E-01  8.50000000E-01  8.50000000E-01
  8.50000000E-01  8.50000000E-01  8.50000000E-01  8.50000000E-01  8.50000000E-01
  8.50000000E-01  8.50000000E-01  8.50000000E-01  8.50000000E-01  8.50000000E-01
  8.50000000E-01  8.50000000E-01  8.50000000E-01  8.50000000E-01  8.50000000E-01
  8.50000000E-01  8.50000000E-01  8.50000000E-01  8.50000000E-01  8.50000000E-01
  8.50000000E-01  8.50000000E-01  8.50000000E-01  8.50000000E-01  8.50000000E-01
  8.50000000E-01  8.50000000E-01  8.50000000E-01  8.50000000E-01  8.50000000E-01
  8.50000000E-01  8.50000000E-01  8.50000000E-01  8.50000000E-01  8.50000000E-01
  8.50000000E-01  8.50000000E-01  8.50000000E-01  8.50000000E-01  8.50000000E-01
  8.50000000E-01  8.50000000E-01  8.50000000E-01  8.50000000E-01  8.50000000E-01
  8.50000000E-01  8.50000000E-01  8.50000000E-01  8.50000000E-01  8.50000000E-01
  8.50000000E-01  8.50000000E-01  8.50000000E-01  8.50000000E-01  8.50000000E-01
  8.50000000E-01  8.50000000E-01  8.50000000E-01  8.50000000E-01  8.50000000E-01
  8.50000000E-01  8.50000000E-01  8.50000000E-01  8.50000000E-01  8.50000000E-01
  8.50000000E-01  8.50000000E-01  8.50000000E-01  8.50000000E-01  8.50000000E-01
  8.50000000E-01  8.50000000E-01  8.50000000E-01  8.50000000E-01  8.50000000E-01
  8.50000000E-01  8.50000000E-01  8.50000000E-01  8.50000000E-01  8.50000000E-01
  8.50000000E-01  8.50000000E-01  8.50000000E-01  8.50000000E-01  8.50000000E-01
  8.50000000E-01  8.50000000E-01  8.50000000E-01  8.50000000E-01  8.50000000E-01
  8.50000000E-01  8.50000000E-01  8.50000000E-01  8.50000000E-01  8.50000000E-01
  8.50000000E-01  8.50000000E-01  8.50000000E-01  8.50000000E-01  8.50000000E-01
  8.50000000E-01  8.50000000E-01  8.50000000E-01  8.50000000E-01  8.50000000E-01
  8.50000000E-01  8.50000000E-01  8.50000000E-01  8.50000000E-01  8.50000000E-01
  8.50000000E-01  8.50000000E-01  8.50000000E-01  8.50000000E-01  8.50000000E-01
  8.50000000E-01  8.50000000E-01  8.50000000E-01  8.50000000E-01  8.50000000E-01
  8.50000000E-01  8.50000000E-01  8.50000000E-01  8.50000000E-01  8.50000000E-01
  8.50000000E-01  8.50000000E-01  8.50000000E-01  8.50000000E-01  8.50000000E-01
  8.50000000E-01  8.50000000E-01  8.50000000E-01  8.50000000E-01  8.50000000E-01
  8.50000000E-01  8.50000000E-01  8.50000000E-01  8.50000000E-01  8.50000000E-01
  8.50000000E-01  8.50000000E-01  8.50000000E-01  8.50000000E-01  8.50000000E-01
  8.50000000E-01  8.50000000E-01  8.50000000E-01  8.50000000E-01  8.50000000E-01
  8.50000000E-01  8.50000000E-01  8.50000000E-01  8.50000000E-01  8.50000000E-01
  8.50000000E-01  8.50000000E-01  8.50000000E-01  8.50000000E-01  8.50000000E-01
  8.50000000E-01  8.50000000E-01  8.50000000E-01  8.50000000E-01  8.50000000E-01
  8.50000000E-01  8.50000000E-01  8.50000000E-01  8.50000000E-01  8.50000000E-01
  8.50000000E-01  8.50000000E-01  8.50000000E-01  8.50000000E-01  8.50000000E-01
  8.50000000E-01  8.50000000E-01  8.50000000E-01  8.50000000E-01  8.50000000E-01
  8.50000000E-01  8.50000000E-01  8.50000000E-01  8.50000000E-01  8.50000000E-01
  8.50000000E-01  8.50000000E-01  8.50000000E-01  8.50000000E-01  8.50000000E-01
  8.50000000E-01  8.50000000E-01  8.50000000E-01  8.50000000E-01  8.50000000E-01
  8.50000000E-01  8.50000000E-01  8.50000000E-01  8.50000000E-01  8.50000000E-01
  8.50000000E-01  8.50000000E-01  8.50000000E-01  8.50000000E-01  8.50000000E-01
  8.50000000E-01  8.50000000E-01  8.50000000E-01  8.50000000E-01  8.50000000E-01
  8.50000000E-01  8.50000000E-01  8.50000000E-01  8.50000000E-01  8.50000000E-01
  8.50000000E-01  8.50000000E-01  8.50000000E-01  8.50000000E-01  8.50000000E-01
  8.50000000E-01  8.50000000E-01  8.50000000E-01  8.50000000E-01  8.50000000E-01
  8.50000000E-01  8.50000000E-01  8.50000000E-01  8.50000000E-01  8.50000000E-01
  8.50000000E-01  8.50000000E-01  8.50000000E-01  8.50000000E-01  8.50000000E-01
  8.50000000E-01  8.50000000E-01  8.50000000E-01  8.50000000E-01  8.50000000E-01
  8.50000000E-01  8.50000000E-01  8.50000000E-01  8.50000000E-01  8.50000000E-01
  8.50000000E-01  8.50000000E-01  8.50000000E-01  8.50000000E-01  8.50000000E-01
  8.50000000E-01  8.50000000E-01  8.50000000E-01  8.50000000E-01  8.50000000E-01
  8.50000000E-01  8.50000000E-01  8.50000000E-01  8.50000000E-01  8.50000000E-01
  8.50000000E-01  8.50000000E-01  8.50000000E-01  8.50000000E-01  8.50000000E-01
  8.50000000E-01  8.50000000E-01  8.50000000E-01  8.50000000E-01  8.50000000E-01
  8.50000000E-01  8.50000000E-01  8.50000000E-01  8.50000000E-01  8.50000000E-01
  8.50000000E-01  8.50000000E-01  8.50000000E-01  8.50000000E-01  8.50000000E-01
  8.50000000E-01  8.50000000E-01  8.50000000E-01  8.50000000E-01  8.50000000E-01
  8.50000000E-01  8.50000000E-01  8.50000000E-01  8.50000000E-01  8.50000000E-01
  8.50000000E-01  8.50000000E-01  8.50000000E-01  8.50000000E-01  8.50000000E-01
  8.50000000E-01  8.50000000E-01  8.50000000E-01  8.50000000E-01  8.50000000E-01
  8.50000000E-01  8.50000000E-01  8.50000000E-01  8.50000000E-01  8.50000000E-01
  8.50000000E-01  8.50000000E-01  8.50000000E-01  8.50000000E-01  8.50000000E-01
  8.50000000E-01  8.50000000E-01  8.50000000E-01  8.50000000E-01  8.50000000E-01
  8.50000000E-01  8.50000000E-01  8.50000000E-01  8.50000000E-01  8.50000000E-01
  8.50000000E-01  8.50000000E-01  8.50000000E-01  8.50000000E-01  8.50000000E-01
  8.50000000E-01  8.50000000E-01  8.50000000E-01  8.50000000E-01  8.50000000E-01
  8.50000000E-01  8.50000000E-01  8.50000000E-01  8.50000000E-01  8.50000000E-01
  8.50000000E-01  8.50000000E-01  8.50000000E-01  8.50000000E-01  8.50000000E-01
  8.50000000E-01  8.50000000E-01  8.50000000E-01  8.50000000E-01  8.50000000E-01
  8.50000000E-01  8.50000000E-01  8.50000000E-01  8.50000000E-01  8.50000000E-01
  8.50000000E-01  8.50000000E-01  8.50000000E-01  8.50000000E-01  8.50000000E-01
  8.50000000E-01  8.50000000E-01  8.50000000E-01  8.50000000E-01  8.50000000E-01
  8.50000000E-01  8.50000000E-01  8.50000000E-01  8.50000000E-01  8.50000000E-01
  8.50000000E-01  8.50000000E-01  8.50000000E-01  8.50000000E-01  8.50000000E-01
  8.50000000E-01  8.50000000E-01  8.50000000E-01  8.50000000E-01  8.50000000E-01
  8.50000000E-01  8.50000000E-01  8.50000000E-01  8.50000000E-01  8.50000000E-01
  8.50000000E-01  8.50000000E-01  8.50000000E-01  8.50000000E-01  8.50000000E-01
  8.50000000E-01  8.50000000E-01  8.50000000E-01  8.50000000E-01  8.50000000E-01
  8.50000000E-01  8.50000000E-01  8.50000000E-01  8.50000000E-01  8.50000000E-01
  8.50000000E-01  8.50000000E-01  8.50000000E-01  8.50000000E-01  8.50000000E-01
  8.50000000E-01  8.50000000E-01  8.50000000E-01  8.50000000E-01  8.50000000E-01
  8.50000000E-01  8.50000000E-01  8.50000000E-01  8.50000000E-01  8.50000000E-01
  8.50000000E-01  8.50000000E-01  8.50000000E-01  8.50000000E-01  8.50000000E-01
  8.50000000E-01  8.50000000E-01  8.50000000E-01  8.50000000E-01  8.50000000E-01
  8.50000000E-01  8.50000000E-01  8.50000000E-01  8.50000000E-01  8.50000000E-01
  8.50000000E-01  8.50000000E-01  8.50000000E-01  8.50000000E-01  8.50000000E-01
  8.50000000E-01  8.50000000E-01  8.50000000E-01  8.50000000E-01  8.50000000E-01
  8.50000000E-01  8.50000000E-01  8.50000000E-01  8.50000000E-01  8.50000000E-01
  8.50000000E-01  8.50000000E-01  8.50000000E-01  8.50000000E-01  8.50000000E-01
  8.50000000E-01  8.50000000E-01  8.50000000E-01  8.50000000E-01  8.50000000E-01
  8.50000000E-01  8.50000000E-01  8.50000000E-01  8.50000000E-01  8.50000000E-01
  8.50000000E-01  8.50000000E-01  8.50000000E-01  8.50000000E-01  8.50000000E-01
  8.50000000E-01  8.50000000E-01  8.50000000E-01  8.50000000E-01  8.50000000E-01
  8.50000000E-01  8.50000000E-01  8.50000000E-01  8.50000000E-01  8.50000000E-01
  8.50000000E-01  8.50000000E-01  8.50000000E-01  8.50000000E-01  8.50000000E-01
  8.50000000E-01  8.50000000E-01  8.50000000E-01  8.50000000E-01  8.50000000E-01
  8.50000000E-01  8.50000000E-01  8.50000000E-01  8.50000000E-01  8.50000000E-01
  8.50000000E-01  8.50000000E-01  8.50000000E-01  8.50000000E-01  8.50000000E-01
  8.50000000E-01  8.50000000E-01  8.50000000E-01  8.50000000E-01  8.50000000E-01
  8.50000000E-01  8.50000000E-01  8.50000000E-01  8.50000000E-01  8.50000000E-01
  8.50000000E-01  8.50000000E-01  8.50000000E-01  8.50000000E-01  8.50000000E-01
  8.50000000E-01  8.50000000E-01  8.50000000E-01  8.50000000E-01  8.50000000E-01
  8.50000000E-01  8.50000000E-01  8.50000000E-01  8.50000000E-01  8.50000000E-01
  8.50000000E-01  8.50000000E-01  8.50000000E-01  8.50000000E-01  8.50000000E-01
  8.50000000E-01  8.50000000E-01  8.50000000E-01  8.50000000E-01  8.50000000E-01
  8.50000000E-01  8.50000000E-01  8.50000000E-01  8.50000000E-01  8.50000000E-01
  8.50000000E-01  8.50000000E-01  8.50000000E-01  8.50000000E-01  8.50000000E-01
  8.50000000E-01  8.50000000E-01  8.50000000E-01  8.50000000E-01  8.50000000E-01
  8.50000000E-01  8.50000000E-01  8.50000000E-01  8.50000000E-01  8.50000000E-01
  8.50000000E-01  8.50000000E-01  8.50000000E-01  8.50000000E-01  8.50000000E-01
  8.50000000E-01  8.50000000E-01  8.50000000E-01  8.50000000E-01  8.50000000E-01
  8.50000000E-01  8.50000000E-01  8.50000000E-01  8.50000000E-01  8.50000000E-01
  8.50000000E-01  8.50000000E-01  8.50000000E-01  8.50000000E-01  8.50000000E-01
  8.50000000E-01  8.50000000E-01  8.50000000E-01  8.50000000E-01  8.50000000E-01
  8.50000000E-01  8.50000000E-01  8.50000000E-01  8.50000000E-01  8.50000000E-01
  8.50000000E-01  8.50000000E-01  8.50000000E-01  8.50000000E-01  8.50000000E-01
  8.50000000E-01  8.50000000E-01  8.50000000E-01  8.50000000E-01  8.50000000E-01
  8.50000000E-01  8.50000000E-01  8.50000000E-01  8.50000000E-01  8.50000000E-01
  8.50000000E-01  8.50000000E-01  8.50000000E-01  8.50000000E-01  8.50000000E-01
  8.50000000E-01  8.50000000E-01  8.50000000E-01  8.50000000E-01  8.50000000E-01
  8.50000000E-01  8.50000000E-01  8.50000000E-01  8.50000000E-01  8.50000000E-01
  8.50000000E-01  8.50000000E-01  8.50000000E-01  8.50000000E-01  8.50000000E-01
  8.50000000E-01  8.50000000E-01  8.50000000E-01  8.50000000E-01  8.50000000E-01
  8.50000000E-01  8.50000000E-01  8.50000000E-01  8.50000000E-01  8.50000000E-01
  8.50000000E-01  8.50000000E-01  8.50000000E-01  8.50000000E-01  8.50000000E-01
  8.50000000E-01  8.50000000E-01  8.50000000E-01  8.50000000E-01  8.50000000E-01
  8.50000000E-01  8.50000000E-01  8.50000000E-01  8.50000000E-01  8.50000000E-01
  8.50000000E-01  8.50000000E-01  8.50000000E-01  8.50000000E-01  8.50000000E-01
  8.50000000E-01  8.50000000E-01  8.50000000E-01  8.50000000E-01  8.50000000E-01
  8.50000000E-01  8.50000000E-01  8.50000000E-01  8.50000000E-01  8.50000000E-01
  8.50000000E-01  8.50000000E-01  8.50000000E-01  8.50000000E-01  8.50000000E-01
  8.50000000E-01  8.50000000E-01  8.50000000E-01  8.50000000E-01  8.50000000E-01
  8.50000000E-01  8.50000000E-01  8.50000000E-01  8.50000000E-01  8.50000000E-01
  8.50000000E-01  8.50000000E-01  8.50000000E-01  8.50000000E-01  8.50000000E-01
  8.50000000E-01  8.50000000E-01  8.50000000E-01  8.50000000E-01  8.50000000E-01
  8.50000000E-01  8.50000000E-01  8.50000000E-01  8.50000000E-01  8.50000000E-01
  8.50000000E-01  8.50000000E-01  8.50000000E-01  8.50000000E-01  8.50000000E-01
  8.50000000E-01  8.50000000E-01  8.50000000E-01  8.50000000E-01  8.50000000E-01
  8.50000000E-01  8.50000000E-01  8.50000000E-01  8.50000000E-01  8.50000000E-01
  8.50000000E-01  8.50000000E-01  8.50000000E-01  8.50000000E-01  8.50000000E-01
  8.50000000E-01  8.50000000E-01  8.50000000E-01  8.50000000E-01  8.50000000E-01
  8.50000000E-01  8.50000000E-01  8.50000000E-01  8.50000000E-01  8.50000000E-01
  8.50000000E-01  8.50000000E-01  8.50000000E-01  8.50000000E-01  8.50000000E-01
  8.50000000E-01  8.50000000E-01  8.50000000E-01  8.50000000E-01  8.50000000E-01
  8.50000000E-01  8.50000000E-01  8.50000000E-01  8.50000000E-01  8.50000000E-01
  8.50000000E-01  8.50000000E-01  8.50000000E-01  8.50000000E-01  8.50000000E-01
  8.50000000E-01  8.50000000E-01  8.50000000E-01  8.50000000E-01  8.50000000E-01
  8.50000000E-01  8.50000000E-01  8.50000000E-01  8.50000000E-01  8.50000000E-01
  8.50000000E-01  8.50000000E-01  8.50000000E-01  8.50000000E-01  8.50000000E-01
  8.50000000E-01  8.50000000E-01  8.50000000E-01  8.50000000E-01  8.50000000E-01
  8.50000000E-01  8.50000000E-01  8.50000000E-01  8.50000000E-01  8.50000000E-01
  8.50000000E-01  8.50000000E-01  8.50000000E-01  8.50000000E-01  8.50000000E-01
  8.50000000E-01  8.50000000E-01  8.50000000E-01  8.50000000E-01  8.50000000E-01
  8.50000000E-01  8.50000000E-01  8.50000000E-01  8.50000000E-01  8.50000000E-01
  8.50000000E-01  8.50000000E-01  8.50000000E-01  8.50000000E-01  8.50000000E-01
  8.50000000E-01  8.50000000E-01  8.50000000E-01  8.50000000E-01  8.50000000E-01
  8.50000000E-01  8.50000000E-01  8.50000000E-01  8.50000000E-01  8.50000000E-01
  8.50000000E-01  8.50000000E-01  8.50000000E-01  8.50000000E-01  8.50000000E-01
  8.50000000E-01  8.50000000E-01  8.50000000E-01  8.50000000E-01  8.50000000E-01
  8.50000000E-01  8.50000000E-01  8.50000000E-01  8.50000000E-01  8.50000000E-01
  8.50000000E-01  8.50000000E-01  8.50000000E-01  8.50000000E-01  8.50000000E-01
  8.50000000E-01  8.50000000E-01  8.50000000E-01  8.50000000E-01  8.50000000E-01
  8.50000000E-01  8.50000000E-01  8.50000000E-01  8.50000000E-01  8.50000000E-01
  8.50000000E-01  8.50000000E-01  8.50000000E-01  8.50000000E-01  8.50000000E-01
  8.50000000E-01  8.50000000E-01  8.50000000E-01  8.50000000E-01  8.50000000E-01
  8.50000000E-01  8.50000000E-01  8.50000000E-01  8.50000000E-01  8.50000000E-01
  8.50000000E-01  8.50000000E-01  8.50000000E-01  8.50000000E-01  8.50000000E-01
  8.50000000E-01  8.50000000E-01  8.50000000E-01  8.50000000E-01  8.50000000E-01
  8.50000000E-01  8.50000000E-01  8.50000000E-01  8.50000000E-01  8.50000000E-01
  8.50000000E-01  8.50000000E-01  8.50000000E-01  8.50000000E-01  8.50000000E-01
  8.50000000E-01  8.50000000E-01  8.50000000E-01  8.50000000E-01  8.50000000E-01
  8.50000000E-01  8.50000000E-01  8.50000000E-01  8.50000000E-01  8.50000000E-01
  8.50000000E-01  8.50000000E-01  8.50000000E-01  8.50000000E-01  8.50000000E-01
  8.50000000E-01  8.50000000E-01  8.50000000E-01  8.50000000E-01  8.50000000E-01
  8.50000000E-01  8.50000000E-01  8.50000000E-01  8.50000000E-01  8.50000000E-01
  8.50000000E-01  8.50000000E-01  8.50000000E-01  8.50000000E-01  8.50000000E-01
  8.50000000E-01  8.50000000E-01  8.50000000E-01  8.50000000E-01  8.50000000E-01
  8.50000000E-01  8.50000000E-01  8.50000000E-01  8.50000000E-01  8.50000000E-01
  8.50000000E-01  8.50000000E-01  8.50000000E-01  8.50000000E-01  8.50000000E-01
  8.50000000E-01  8.50000000E-01  8.50000000E-01  8.50000000E-01  8.50000000E-01
  8.50000000E-01  8.50000000E-01  8.50000000E-01  8.50000000E-01  8.50000000E-01
  8.50000000E-01  8.50000000E-01  8.50000000E-01  8.50000000E-01  8.50000000E-01
  8.50000000E-01  8.50000000E-01  8.50000000E-01  8.50000000E-01  8.50000000E-01
  8.50000000E-01  8.50000000E-01  8.50000000E-01  8.50000000E-01  8.50000000E-01
  8.50000000E-01  8.50000000E-01  8.50000000E-01  8.50000000E-01  8.50000000E-01
  8.50000000E-01  8.50000000E-01  8.50000000E-01  8.50000000E-01  8.50000000E-01
  8.50000000E-01  8.50000000E-01  8.50000000E-01  8.50000000E-01  8.50000000E-01
  8.50000000E-01  8.50000000E-01  8.50000000E-01  8.50000000E-01  8.50000000E-01
  8.50000000E-01  8.50000000E-01  8.50000000E-01  8.50000000E-01  8.50000000E-01
  8.50000000E-01  8.50000000E-01  8.50000000E-01  8.50000000E-01  8.50000000E-01
  8.50000000E-01  8.50000000E-01  8.50000000E-01  8.50000000E-01  8.50000000E-01
  8.50000000E-01  8.50000000E-01  8.50000000E-01  8.50000000E-01  8.50000000E-01
  8.50000000E-01  8.50000000E-01  8.50000000E-01  8.50000000E-01  8.50000000E-01
  8.50000000E-01  8.50000000E-01  8.50000000E-01  8.50000000E-01  8.50000000E-01
  8.50000000E-01  8.50000000E-01  8.50000000E-01  8.50000000E-01  8.50000000E-01
  8.50000000E-01  8.50000000E-01  8.50000000E-01  8.50000000E-01  8.50000000E-01
  8.50000000E-01  8.50000000E-01  8.50000000E-01  8.50000000E-01  8.50000000E-01
  8.50000000E-01  8.50000000E-01  8.50000000E-01  8.50000000E-01  8.50000000E-01
  8.50000000E-01  8.50000000E-01  8.50000000E-01  8.50000000E-01  8.50000000E-01
  8.50000000E-01  8.50000000E-01  8.50000000E-01  8.50000000E-01  8.50000000E-01
  8.50000000E-01  8.50000000E-01  8.50000000E-01  8.50000000E-01  8.50000000E-01
  8.50000000E-01  8.50000000E-01  8.50000000E-01  8.50000000E-01  8.50000000E-01
  8.50000000E-01  8.50000000E-01  8.50000000E-01  8.50000000E-01  8.50000000E-01
  8.50000000E-01  8.50000000E-01  8.50000000E-01  8.50000000E-01  8.50000000E-01
  8.50000000E-01  8.50000000E-01  8.50000000E-01  8.50000000E-01  8.50000000E-01
  8.50000000E-01  8.50000000E-01  8.50000000E-01  8.50000000E-01  8.50000000E-01
  8.50000000E-01  8.50000000E-01  8.50000000E-01  8.50000000E-01  8.50000000E-01
  8.50000000E-01  8.50000000E-01  8.50000000E-01  8.50000000E-01  8.50000000E-01
  8.50000000E-01  8.50000000E-01  8.50000000E-01  8.50000000E-01  8.50000000E-01
  8.50000000E-01  8.50000000E-01  8.50000000E-01  8.50000000E-01  8.50000000E-01
  8.50000000E-01  8.50000000E-01  8.50000000E-01  8.50000000E-01  8.50000000E-01
  8.50000000E-01  8.50000000E-01  8.50000000E-01  8.50000000E-01  8.50000000E-01
  8.50000000E-01  8.50000000E-01  8.50000000E-01  8.50000000E-01  8.50000000E-01
  8.50000000E-01  8.50000000E-01  8.50000000E-01  8.50000000E-01  8.50000000E-01
  8.50000000E-01  8.50000000E-01  8.50000000E-01  8.50000000E-01  8.50000000E-01
  8.50000000E-01  8.50000000E-01  8.50000000E-01  8.50000000E-01  8.50000000E-01
  8.50000000E-01  8.50000000E-01  8.50000000E-01  8.50000000E-01  8.50000000E-01
  8.50000000E-01  8.50000000E-01  8.50000000E-01  8.50000000E-01  8.50000000E-01
  8.50000000E-01  8.50000000E-01  8.50000000E-01  8.50000000E-01  8.50000000E-01
  8.50000000E-01  8.50000000E-01  8.50000000E-01  8.50000000E-01  8.50000000E-01
  8.50000000E-01  8.50000000E-01  8.50000000E-01  8.50000000E-01  8.50000000E-01
  8.50000000E-01  8.50000000E-01  8.50000000E-01  8.50000000E-01  8.50000000E-01
  8.50000000E-01  8.50000000E-01  8.50000000E-01  8.50000000E-01  8.50000000E-01
  8.50000000E-01  8.50000000E-01  8.50000000E-01  8.50000000E-01  8.50000000E-01
  8.50000000E-01  8.50000000E-01  8.50000000E-01  8.50000000E-01  8.50000000E-01
  8.50000000E-01  8.50000000E-01  8.50000000E-01  8.50000000E-01  8.50000000E-01
  8.50000000E-01  8.50000000E-01  8.50000000E-01  8.50000000E-01  8.50000000E-01
  8.50000000E-01  8.50000000E-01  8.50000000E-01  8.50000000E-01  8.50000000E-01
  8.50000000E-01  8.50000000E-01  8.50000000E-01  8.50000000E-01  8.50000000E-01
  8.50000000E-01  8.50000000E-01  8.50000000E-01  8.50000000E-01  8.50000000E-01
  8.50000000E-01  8.50000000E-01  8.50000000E-01  8.50000000E-01  8.50000000E-01
  8.50000000E-01  8.50000000E-01  8.50000000E-01  8.50000000E-01  8.50000000E-01
  8.50000000E-01  8.50000000E-01  8.50000000E-01  8.50000000E-01  8.50000000E-01
  8.50000000E-01  8.50000000E-01  8.50000000E-01  8.50000000E-01  8.50000000E-01
  8.50000000E-01  8.50000000E-01  8.50000000E-01  8.50000000E-01  8.50000000E-01
  8.50000000E-01  8.50000000E-01  8.50000000E-01  8.50000000E-01  8.50000000E-01
  8.50000000E-01  8.50000000E-01  8.50000000E-01  8.50000000E-01  8.50000000E-01
  8.50000000E-01  8.50000000E-01  8.50000000E-01  8.50000000E-01  8.50000000E-01
  8.50000000E-01  8.50000000E-01  8.50000000E-01  8.50000000E-01  8.50000000E-01
  8.50000000E-01  8.50000000E-01  8.50000000E-01  8.50000000E-01  8.50000000E-01
  8.50000000E-01  8.50000000E-01  8.50000000E-01  8.50000000E-01  8.50000000E-01
  8.50000000E-01  8.50000000E-01  8.50000000E-01  8.50000000E-01  8.50000000E-01
  8.50000000E-01  8.50000000E-01  8.50000000E-01  8.50000000E-01  8.50000000E-01
  8.50000000E-01  8.50000000E-01  8.50000000E-01  8.50000000E-01  8.50000000E-01
  8.50000000E-01  8.50000000E-01  8.50000000E-01  8.50000000E-01  8.50000000E-01
  8.50000000E-01  8.50000000E-01  8.50000000E-01  8.50000000E-01  8.50000000E-01
  8.50000000E-01  8.50000000E-01  8.50000000E-01  8.50000000E-01  8.50000000E-01
  8.50000000E-01  8.50000000E-01  8.50000000E-01  8.50000000E-01  8.50000000E-01
  8.50000000E-01  8.50000000E-01  8.50000000E-01  8.50000000E-01  8.50000000E-01
  8.50000000E-01  8.50000000E-01  8.50000000E-01  8.50000000E-01  8.50000000E-01
  8.50000000E-01  8.50000000E-01  8.50000000E-01  8.50000000E-01  8.50000000E-01
  8.50000000E-01  8.50000000E-01  8.50000000E-01  8.50000000E-01  8.50000000E-01
  8.50000000E-01  8.50000000E-01  8.50000000E-01  8.50000000E-01  8.50000000E-01
  8.50000000E-01  8.50000000E-01  8.50000000E-01  8.50000000E-01  8.50000000E-01
  8.50000000E-01  8.50000000E-01  8.50000000E-01  8.50000000E-01  8.50000000E-01
  8.50000000E-01  8.50000000E-01  8.50000000E-01  8.50000000E-01  8.50000000E-01
  8.50000000E-01  8.50000000E-01  8.50000000E-01  8.50000000E-01  8.50000000E-01
  8.50000000E-01  8.50000000E-01  8.50000000E-01  8.50000000E-01  8.50000000E-01
  8.50000000E-01  8.50000000E-01  8.50000000E-01  8.50000000E-01  8.50000000E-01
  8.50000000E-01  8.50000000E-01  8.50000000E-01  8.50000000E-01  8.50000000E-01
  8.50000000E-01  8.50000000E-01  8.50000000E-01  8.50000000E-01  8.50000000E-01
  8.50000000E-01  8.50000000E-01  8.50000000E-01  8.50000000E-01  8.50000000E-01
  8.50000000E-01  8.50000000E-01  8.50000000E-01  8.50000000E-01  8.50000000E-01
  8.50000000E-01  8.50000000E-01  8.50000000E-01  8.50000000E-01  8.50000000E-01
  8.50000000E-01  8.50000000E-01  8.50000000E-01  8.50000000E-01  8.50000000E-01
  8.50000000E-01  8.50000000E-01  8.50000000E-01  8.50000000E-01  8.50000000E-01
  8.50000000E-01  8.50000000E-01  8.50000000E-01  8.50000000E-01  8.50000000E-01
  8.50000000E-01  8.50000000E-01  8.50000000E-01  8.50000000E-01  8.50000000E-01
  8.50000000E-01  8.50000000E-01  8.50000000E-01  8.50000000E-01  8.50000000E-01
  8.50000000E-01  8.50000000E-01  8.50000000E-01  8.50000000E-01  8.50000000E-01
  8.50000000E-01  8.50000000E-01  8.50000000E-01  8.50000000E-01  8.50000000E-01
  8.50000000E-01  8.50000000E-01  8.50000000E-01  8.50000000E-01  8.50000000E-01
  8.50000000E-01  8.50000000E-01  8.50000000E-01  8.50000000E-01  8.50000000E-01
  8.50000000E-01  8.50000000E-01  8.50000000E-01  8.50000000E-01  8.50000000E-01
  8.50000000E-01  8.50000000E-01  8.50000000E-01  8.50000000E-01  8.50000000E-01
  8.50000000E-01  8.50000000E-01  8.50000000E-01  8.50000000E-01  8.50000000E-01
  8.50000000E-01  8.50000000E-01  8.50000000E-01  8.50000000E-01  8.50000000E-01
  8.50000000E-01  8.50000000E-01  8.50000000E-01  8.50000000E-01  8.50000000E-01
  8.50000000E-01  8.50000000E-01  8.50000000E-01  8.50000000E-01  8.50000000E-01
  8.50000000E-01  8.50000000E-01  8.50000000E-01  8.50000000E-01  8.50000000E-01
  8.50000000E-01  8.50000000E-01  8.50000000E-01  8.50000000E-01  8.50000000E-01
  8.50000000E-01  8.50000000E-01  8.50000000E-01  8.50000000E-01  8.50000000E-01
  8.50000000E-01  8.50000000E-01  8.50000000E-01  8.50000000E-01  8.50000000E-01
  8.50000000E-01  8.50000000E-01  8.50000000E-01  8.50000000E-01  8.50000000E-01
  8.50000000E-01  8.50000000E-01  8.50000000E-01  8.50000000E-01  8.50000000E-01
  8.50000000E-01  8.50000000E-01  8.50000000E-01  8.50000000E-01  8.50000000E-01
  8.50000000E-01  8.50000000E-01  8.50000000E-01  8.50000000E-01  8.50000000E-01
  8.50000000E-01  8.50000000E-01  8.50000000E-01  8.50000000E-01  8.50000000E-01
  8.50000000E-01  8.50000000E-01  8.50000000E-01  8.50000000E-01  8.50000000E-01
  8.50000000E-01  8.50000000E-01  8.50000000E-01  8.50000000E-01  8.50000000E-01
  8.50000000E-01  8.50000000E-01  8.50000000E-01  8.50000000E-01  8.50000000E-01
  8.50000000E-01  8.50000000E-01  8.50000000E-01  8.50000000E-01  8.50000000E-01
  8.50000000E-01  8.50000000E-01  8.50000000E-01  8.50000000E-01  8.50000000E-01
  8.50000000E-01  8.50000000E-01  8.50000000E-01  8.50000000E-01  8.50000000E-01
  8.50000000E-01  8.50000000E-01  8.50000000E-01  8.50000000E-01  8.50000000E-01
  8.50000000E-01  8.50000000E-01  8.50000000E-01  8.50000000E-01  8.50000000E-01
  8.50000000E-01  8.50000000E-01  8.50000000E-01  8.50000000E-01  8.50000000E-01
  8.50000000E-01  8.50000000E-01  8.50000000E-01  8.50000000E-01  8.50000000E-01
  8.50000000E-01  8.50000000E-01  8.50000000E-01  8.50000000E-01  8.50000000E-01
  8.50000000E-01  8.50000000E-01  8.50000000E-01  8.50000000E-01  8.50000000E-01
  8.50000000E-01  8.50000000E-01  8.50000000E-01  8.50000000E-01  8.50000000E-01
  8.50000000E-01  8.50000000E-01  8.50000000E-01  8.50000000E-01  8.50000000E-01
  8.50000000E-01  8.50000000E-01  8.50000000E-01  8.50000000E-01  8.50000000E-01
  8.50000000E-01  8.50000000E-01  8.50000000E-01  8.50000000E-01  8.50000000E-01
  8.50000000E-01  8.50000000E-01  8.50000000E-01  8.50000000E-01  8.50000000E-01
  8.50000000E-01  8.50000000E-01  8.50000000E-01  8.50000000E-01  8.50000000E-01
  8.50000000E-01  8.50000000E-01  8.50000000E-01  8.50000000E-01  8.50000000E-01
  8.50000000E-01  8.50000000E-01  8.50000000E-01  8.50000000E-01  8.50000000E-01
  8.50000000E-01  8.50000000E-01  8.50000000E-01  8.50000000E-01  8.50000000E-01
  8.50000000E-01  8.50000000E-01  8.50000000E-01  8.50000000E-01  8.50000000E-01
  8.50000000E-01  8.50000000E-01  8.50000000E-01  8.50000000E-01  8.50000000E-01
  8.50000000E-01  8.50000000E-01  8.50000000E-01  8.50000000E-01  8.50000000E-01
  8.50000000E-01  8.50000000E-01  8.50000000E-01  8.50000000E-01  8.50000000E-01
  8.50000000E-01  8.50000000E-01  8.50000000E-01  8.50000000E-01  8.50000000E-01
  8.50000000E-01  8.50000000E-01  8.50000000E-01  8.50000000E-01  8.50000000E-01
  8.50000000E-01  8.50000000E-01  8.50000000E-01  8.50000000E-01  8.50000000E-01
  8.50000000E-01  8.50000000E-01  8.50000000E-01  8.50000000E-01  8.50000000E-01
  8.50000000E-01  8.50000000E-01  8.50000000E-01  8.50000000E-01  8.50000000E-01
  8.50000000E-01  8.50000000E-01  8.50000000E-01  8.50000000E-01  8.50000000E-01
  8.50000000E-01  8.50000000E-01  8.50000000E-01  8.50000000E-01  8.50000000E-01
  8.50000000E-01  8.50000000E-01  8.50000000E-01  8.50000000E-01  8.50000000E-01
  8.50000000E-01  8.50000000E-01  8.50000000E-01  8.50000000E-01  8.50000000E-01
  8.50000000E-01  8.50000000E-01  8.50000000E-01  8.50000000E-01  8.50000000E-01
  8.50000000E-01  8.50000000E-01  8.50000000E-01  8.50000000E-01  8.50000000E-01
  8.50000000E-01  8.50000000E-01  8.50000000E-01  8.50000000E-01  8.50000000E-01
  8.50000000E-01  8.50000000E-01  8.50000000E-01  8.50000000E-01  8.50000000E-01
  8.50000000E-01  8.50000000E-01  8.50000000E-01  8.50000000E-01  8.50000000E-01
  8.50000000E-01  8.50000000E-01  8.50000000E-01  8.50000000E-01  8.50000000E-01
  8.50000000E-01  8.50000000E-01  8.50000000E-01  8.50000000E-01  8.50000000E-01
  8.50000000E-01  8.50000000E-01  8.50000000E-01  8.50000000E-01  8.50000000E-01
  8.50000000E-01  8.50000000E-01  8.50000000E-01  8.50000000E-01  8.50000000E-01
  8.50000000E-01  8.50000000E-01  8.50000000E-01  8.50000000E-01  8.50000000E-01
  8.50000000E-01  8.50000000E-01  8.50000000E-01  8.50000000E-01  8.50000000E-01
  8.50000000E-01  8.50000000E-01  8.50000000E-01  8.50000000E-01  8.50000000E-01
  8.50000000E-01  8.50000000E-01  8.50000000E-01  8.50000000E-01  8.50000000E-01
  8.50000000E-01  8.50000000E-01  8.50000000E-01  8.50000000E-01  8.50000000E-01
  8.50000000E-01  8.50000000E-01  8.50000000E-01  8.50000000E-01  8.50000000E-01
  8.50000000E-01  8.50000000E-01  8.50000000E-01  8.50000000E-01  8.50000000E-01
  8.50000000E-01  8.50000000E-01  8.50000000E-01  8.50000000E-01  8.50000000E-01
  8.50000000E-01  8.50000000E-01  8.50000000E-01  8.50000000E-01  8.50000000E-01
  8.50000000E-01  8.50000000E-01  8.50000000E-01  8.50000000E-01  8.50000000E-01
  8.50000000E-01  8.50000000E-01  8.50000000E-01  8.50000000E-01  8.50000000E-01
  8.50000000E-01  8.50000000E-01  8.50000000E-01  8.50000000E-01  8.50000000E-01
  8.50000000E-01  8.50000000E-01  8.50000000E-01  8.50000000E-01  8.50000000E-01
  8.50000000E-01  8.50000000E-01  8.50000000E-01  8.50000000E-01  8.50000000E-01
  8.50000000E-01  8.50000000E-01
%FLAG IPOL                                                                      
%FORMAT(1I8)                                                                    
       0
